
     Program PHONON v.6.7MaX starts on 31May2026 at 12:44:59 

     This program is part of the open-source Quantum ESPRESSO suite
     for quantum simulation of materials; please cite
         "P. Giannozzi et al., J. Phys.:Condens. Matter 21 395502 (2009);
         "P. Giannozzi et al., J. Phys.:Condens. Matter 29 465901 (2017);
          URL http://www.quantum-espresso.org", 
     in publications or presentations arising from this work. More details at
     http://www.quantum-espresso.org/quote

     Parallel version (MPI), running on     9 processors

     MPI processes distributed on     1 nodes
     R & G space division:  proc/nbgrp/npool/nimage =       9
     Reading input from ph.in
     Message from routine ph_restart_set_filename :
     cannot open file for reading or writing
     Message from routine ph_restart_set_filename :
     cannot open file for reading or writing
     Run is not recoverable starting from scratch

     Reading xml data from directory:

     ./out/yh9.save/
     file Y.pbe-spn-rrkjus_psl.1.0.0.UPF: wavefunction(s)  4S renormalized

     IMPORTANT: XC functional enforced from input :
     Exchange-correlation= PBE
                           (   1   4   3   4   0   0   0)
     Any further DFT definition will be discarded
     Please, verify this is what you really want


     Parallelization info
     --------------------
     sticks:   dense  smooth     PW     G-vecs:    dense   smooth      PW
     Min         230      92     28                14097     3570     634
     Max         231      93     29                14105     3574     641
     Sum        2075     835    257               126911    32145    5729

     Reading collected, re-writing distributed wavefunctions


     Dynamical matrices for ( 2, 2, 2)  uniform grid of q-points
     (   8 q-points):
       N         xq(1)         xq(2)         xq(3) 
       1   0.000000000   0.000000000   0.000000000
       2   0.065577873   0.037865685  -0.293458269
       3  -0.007852354  -0.590539127   0.020863580
       4   0.057725519  -0.552673442  -0.272594689
       5  -0.523200584  -0.302067585   0.041740122
       6  -0.457622711  -0.264201900  -0.251718147
       7  -0.531052939  -0.892606711   0.062603703
       8  -0.465475066  -0.854741026  -0.230854567

     Saving dvscf to file. Distribute only q points, not irreducible represetations.

     Calculation of q =    0.0000000   0.0000000   0.0000000

     YH9 electron-phonon 2x2x2 q (RTSC P6_3/mmc clathrate — Kong 2021 measured

     bravais-lattice index     =            0
     lattice parameter (alat)  =       6.1688  a.u.
     unit-cell volume          =     332.0468 (a.u.)^3
     number of atoms/cell      =           20
     number of atomic types    =            2
     kinetic-energy cut-off    =      80.0000  Ry
     charge density cut-off    =     800.0000  Ry
     convergence threshold     =      1.0E-14
     beta                      =       0.3000
     number of iterations used =            4
     Exchange-correlation= PBE
                           (   1   4   3   4   0   0   0)


     celldm(1)=    6.16876  celldm(2)=    0.00000  celldm(3)=    0.00000
     celldm(4)=    0.00000  celldm(5)=    0.00000  celldm(6)=    0.00000

     crystal axes: (cart. coord. in units of alat)
               a(1) = (  0.9761 -0.0053  0.2174 )  
               a(2) = ( -0.4926  0.8532  0.0000 )  
               a(3) = (  0.1038  0.0599  1.7347 )  

     reciprocal axes: (cart. coord. in units 2 pi/alat)
               b(1) = (  1.0464  0.6041 -0.0835 )  
               b(2) = (  0.0157  1.1811 -0.0417 )  
               b(3) = ( -0.1312 -0.0757  0.5869 )  


     Atoms inside the unit cell: 

     Cartesian axes

     site n.  atom      mass           positions (alat units)
        1     Y   88.9059   tau(    1) = (    0.39901    0.23036    0.54516  )
        2     Y   88.9059   tau(    2) = (    0.18825    0.67749    1.40703  )
        3     H    1.0080   tau(    3) = (   -0.07265   -0.04196    0.37622  )
        4     H    1.0080   tau(    4) = (    0.17647    0.10185    1.35853  )
        5     H    1.0080   tau(    5) = (   -0.05457    0.53729    0.28257  )
        6     H    1.0080   tau(    6) = (    0.64185    0.37052    1.66962  )
        7     H    1.0080   tau(    7) = (    0.01426    0.28842    0.98684  )
        8     H    1.0080   tau(    8) = (    0.82295    0.18649    0.96535  )
        9     H    1.0080   tau(    9) = (   -0.12867    0.49456    0.59944  )
       10     H    1.0080   tau(   10) = (    0.13118    0.64456    0.84534  )
       11     H    1.0080   tau(   11) = (    0.57295    0.61947    0.96534  )
       12     H    1.0080   tau(   12) = (    0.71590    0.41333    1.35275  )
       13     H    1.0080   tau(   13) = (    0.45607    0.26330    1.10685  )
       14     H    1.0080   tau(   14) = (   -0.23570    0.72141    0.98686  )
       15     H    1.0080   tau(   15) = (    0.08385    0.31422    1.86755  )
       16     H    1.0080   tau(   16) = (    0.34907    0.77034    1.97562  )
       17     H    1.0080   tau(   17) = (    0.60725    0.65348    1.81940  )
       18     H    1.0080   tau(   18) = (    0.76580    0.13914    0.08463  )
       19     H    1.0080   tau(   19) = (    0.23818    0.13752   -0.02343  )
       20     H    1.0080   tau(   20) = (   -0.28232    0.70874    0.13280  )

     Computing dynamical matrix for 
                    q = (   0.0000000   0.0000000   0.0000000 )

      2 Sym.Ops. (with q -> -q+G )


     G cutoff =  771.1265  (  14098 G-vectors)     FFT grid: ( 60, 60,100)
     G cutoff =  308.4506  (   3571 G-vectors)  smooth grid: ( 36, 36, 64)

     number of k points=   580  Methfessel-Paxton smearing, width (Ry)=  0.0100

     PseudoPot. # 1 for Y  read from file:
     ./pseudo/Y.pbe-spn-rrkjus_psl.1.0.0.UPF
     MD5 check sum: 5fe32e6a006803c2ec2edff47948a3c8
     Pseudo is Ultrasoft + core correction, Zval = 11.0
     Generated using &quot;atomic&quot; code by A. Dal Corso  v.6.2.2
     Using radial grid of 1223 points,  6 beta functions with: 
                l(1) =   0
                l(2) =   0
                l(3) =   1
                l(4) =   1
                l(5) =   2
                l(6) =   2
     Q(r) pseudized with 0 coefficients 


     PseudoPot. # 2 for H  read from file:
     ./pseudo/H.pbe-rrkjus_psl.1.0.0.UPF
     MD5 check sum: 3f4114867bd07edc7f1424d066fc1888
     Pseudo is Ultrasoft, Zval =  1.0
     Generated using &quot;atomic&quot; code by A. Dal Corso  v.6.3MaX
     Using radial grid of  929 points,  2 beta functions with: 
                l(1) =   0
                l(2) =   0
     Q(r) pseudized with 0 coefficients 


     Mode symmetry, C_1 (1)     point group:


     Atomic displacements:
     There are   60 irreducible representations

     Representation     1      1 modes -  To be done

     Representation     2      1 modes -  To be done

     Representation     3      1 modes -  To be done

     Representation     4      1 modes -  To be done

     Representation     5      1 modes -  To be done

     Representation     6      1 modes -  To be done

     Representation     7      1 modes -  To be done

     Representation     8      1 modes -  To be done

     Representation     9      1 modes -  To be done

     Representation    10      1 modes -  To be done

     Representation    11      1 modes -  To be done

     Representation    12      1 modes -  To be done

     Representation    13      1 modes -  To be done

     Representation    14      1 modes -  To be done

     Representation    15      1 modes -  To be done

     Representation    16      1 modes -  To be done

     Representation    17      1 modes -  To be done

     Representation    18      1 modes -  To be done

     Representation    19      1 modes -  To be done

     Representation    20      1 modes -  To be done

     Representation    21      1 modes -  To be done

     Representation    22      1 modes -  To be done

     Representation    23      1 modes -  To be done

     Representation    24      1 modes -  To be done

     Representation    25      1 modes -  To be done

     Representation    26      1 modes -  To be done

     Representation    27      1 modes -  To be done

     Representation    28      1 modes -  To be done

     Representation    29      1 modes -  To be done

     Representation    30      1 modes -  To be done

     Representation    31      1 modes -  To be done

     Representation    32      1 modes -  To be done

     Representation    33      1 modes -  To be done

     Representation    34      1 modes -  To be done

     Representation    35      1 modes -  To be done

     Representation    36      1 modes -  To be done

     Representation    37      1 modes -  To be done

     Representation    38      1 modes -  To be done

     Representation    39      1 modes -  To be done

     Representation    40      1 modes -  To be done

     Representation    41      1 modes -  To be done

     Representation    42      1 modes -  To be done

     Representation    43      1 modes -  To be done

     Representation    44      1 modes -  To be done

     Representation    45      1 modes -  To be done

     Representation    46      1 modes -  To be done

     Representation    47      1 modes -  To be done

     Representation    48      1 modes -  To be done

     Representation    49      1 modes -  To be done

     Representation    50      1 modes -  To be done

     Representation    51      1 modes -  To be done

     Representation    52      1 modes -  To be done

     Representation    53      1 modes -  To be done

     Representation    54      1 modes -  To be done

     Representation    55      1 modes -  To be done

     Representation    56      1 modes -  To be done

     Representation    57      1 modes -  To be done

     Representation    58      1 modes -  To be done

     Representation    59      1 modes -  To be done

     Representation    60      1 modes -  To be done



     Alpha used in Ewald sum =   2.8000
     PHONON       :   3m13.19s CPU   3m20.65s WALL



     Representation #   1 mode #   1

     Self-consistent Calculation

     Pert. #  1: Fermi energy shift (Ry) =    -2.7158E-02     1.3553E-20

      iter #   1 total cpu time :   269.9 secs   av.it.:   6.5
      thresh= 1.000E-02 alpha_mix =  0.300 |ddv_scf|^2 =  2.210E-06

     Pert. #  1: Fermi energy shift (Ry) =    -3.8112E-03     2.6470E-23

      iter #   2 total cpu time :   360.8 secs   av.it.:  10.7
      thresh= 1.487E-04 alpha_mix =  0.300 |ddv_scf|^2 =  5.153E-07

     Pert. #  1: Fermi energy shift (Ry) =    -7.8220E-03    -1.3235E-23

      iter #   3 total cpu time :   448.2 secs   av.it.:  10.2
      thresh= 7.178E-05 alpha_mix =  0.300 |ddv_scf|^2 =  5.838E-08

     Pert. #  1: Fermi energy shift (Ry) =    -4.6602E-03    -2.6470E-23

      iter #   4 total cpu time :   542.4 secs   av.it.:  11.2
      thresh= 2.416E-05 alpha_mix =  0.300 |ddv_scf|^2 =  1.312E-09

     Pert. #  1: Fermi energy shift (Ry) =    -5.3330E-03    -6.6174E-24

      iter #   5 total cpu time :   641.1 secs   av.it.:  11.8
      thresh= 3.622E-06 alpha_mix =  0.300 |ddv_scf|^2 =  4.963E-11

     Pert. #  1: Fermi energy shift (Ry) =    -5.3441E-03    -2.5849E-26

      iter #   6 total cpu time :   736.7 secs   av.it.:  11.4
      thresh= 7.045E-07 alpha_mix =  0.300 |ddv_scf|^2 =  1.002E-11

     Pert. #  1: Fermi energy shift (Ry) =    -5.3026E-03     1.6156E-27

      iter #   7 total cpu time :   832.8 secs   av.it.:  11.5
      thresh= 3.166E-07 alpha_mix =  0.300 |ddv_scf|^2 =  1.977E-12

     Pert. #  1: Fermi energy shift (Ry) =    -5.2770E-03    -2.5849E-26

      iter #   8 total cpu time :   930.4 secs   av.it.:  11.7
      thresh= 1.406E-07 alpha_mix =  0.300 |ddv_scf|^2 =  1.464E-13

     Pert. #  1: Fermi energy shift (Ry) =    -5.2740E-03    -5.1699E-26

      iter #   9 total cpu time :  1024.7 secs   av.it.:  11.2
      thresh= 3.826E-08 alpha_mix =  0.300 |ddv_scf|^2 =  3.521E-14

     Pert. #  1: Fermi energy shift (Ry) =    -5.2753E-03    -5.1699E-26

      iter #  10 total cpu time :  1120.0 secs   av.it.:  11.3
      thresh= 1.876E-08 alpha_mix =  0.300 |ddv_scf|^2 =  6.005E-15

     End of self-consistent calculation

     Convergence has been achieved 


     Representation #   2 mode #   2

     Self-consistent Calculation

     Pert. #  1: Fermi energy shift (Ry) =    -1.5704E-02     1.6941E-21

      iter #   1 total cpu time :  1198.2 secs   av.it.:   6.5
      thresh= 1.000E-02 alpha_mix =  0.300 |ddv_scf|^2 =  1.243E-06

     Pert. #  1: Fermi energy shift (Ry) =    -2.2086E-03    -3.3087E-24

      iter #   2 total cpu time :  1289.4 secs   av.it.:  10.8
      thresh= 1.115E-04 alpha_mix =  0.300 |ddv_scf|^2 =  2.700E-07

     Pert. #  1: Fermi energy shift (Ry) =    -4.9095E-03     3.3087E-24

      iter #   3 total cpu time :  1379.2 secs   av.it.:  10.6
      thresh= 5.196E-05 alpha_mix =  0.300 |ddv_scf|^2 =  5.360E-08

     Pert. #  1: Fermi energy shift (Ry) =    -2.6840E-03    -3.3087E-24

      iter #   4 total cpu time :  1473.2 secs   av.it.:  11.1
      thresh= 2.315E-05 alpha_mix =  0.300 |ddv_scf|^2 =  1.293E-09

     Pert. #  1: Fermi energy shift (Ry) =    -3.1073E-03    -2.0680E-25

      iter #   5 total cpu time :  1572.9 secs   av.it.:  11.9
      thresh= 3.596E-06 alpha_mix =  0.300 |ddv_scf|^2 =  3.762E-11

     Pert. #  1: Fermi energy shift (Ry) =    -3.0875E-03     2.5849E-26

      iter #   6 total cpu time :  1668.7 secs   av.it.:  11.4
      thresh= 6.133E-07 alpha_mix =  0.300 |ddv_scf|^2 =  6.794E-12

     Pert. #  1: Fermi energy shift (Ry) =    -3.0577E-03     1.2925E-26

      iter #   7 total cpu time :  1766.3 secs   av.it.:  11.7
      thresh= 2.607E-07 alpha_mix =  0.300 |ddv_scf|^2 =  9.307E-13

     Pert. #  1: Fermi energy shift (Ry) =    -3.0507E-03     5.1699E-26

      iter #   8 total cpu time :  1861.5 secs   av.it.:  11.3
      thresh= 9.647E-08 alpha_mix =  0.300 |ddv_scf|^2 =  1.418E-13

     Pert. #  1: Fermi energy shift (Ry) =    -3.0486E-03     1.0340E-25

      iter #   9 total cpu time :  1956.3 secs   av.it.:  11.3
      thresh= 3.766E-08 alpha_mix =  0.300 |ddv_scf|^2 =  3.075E-14

     Pert. #  1: Fermi energy shift (Ry) =    -3.0500E-03     1.0340E-25

      iter #  10 total cpu time :  2051.0 secs   av.it.:  11.2
      thresh= 1.754E-08 alpha_mix =  0.300 |ddv_scf|^2 =  6.810E-15

     End of self-consistent calculation

     Convergence has been achieved 


     Representation #   3 mode #   3

     Self-consistent Calculation

     Pert. #  1: Fermi energy shift (Ry) =     2.0775E-02     8.4703E-22

      iter #   1 total cpu time :  2133.0 secs   av.it.:   7.0
      thresh= 1.000E-02 alpha_mix =  0.300 |ddv_scf|^2 =  2.940E-05

     Pert. #  1: Fermi energy shift (Ry) =    -4.2149E-02     2.6470E-23

      iter #   2 total cpu time :  2221.4 secs   av.it.:  10.3
      thresh= 5.422E-04 alpha_mix =  0.300 |ddv_scf|^2 =  7.567E-06

     Pert. #  1: Fermi energy shift (Ry) =    -1.4989E-02     3.3087E-24

      iter #   3 total cpu time :  2305.5 secs   av.it.:   9.7
      thresh= 2.751E-04 alpha_mix =  0.300 |ddv_scf|^2 =  4.096E-08

     Pert. #  1: Fermi energy shift (Ry) =    -1.0057E-02    -1.3235E-23

      iter #   4 total cpu time :  2400.9 secs   av.it.:  11.3
      thresh= 2.024E-05 alpha_mix =  0.300 |ddv_scf|^2 =  1.355E-09

     Pert. #  1: Fermi energy shift (Ry) =    -9.5305E-03    -1.6544E-24

      iter #   5 total cpu time :  2495.4 secs   av.it.:  11.2
      thresh= 3.681E-06 alpha_mix =  0.300 |ddv_scf|^2 =  2.626E-10

     Pert. #  1: Fermi energy shift (Ry) =    -9.3257E-03    -2.0680E-25

      iter #   6 total cpu time :  2594.2 secs   av.it.:  11.8
      thresh= 1.621E-06 alpha_mix =  0.300 |ddv_scf|^2 =  1.365E-11

     Pert. #  1: Fermi energy shift (Ry) =    -9.3978E-03     2.5849E-26

      iter #   7 total cpu time :  2694.2 secs   av.it.:  12.0
      thresh= 3.695E-07 alpha_mix =  0.300 |ddv_scf|^2 =  5.883E-13

     Pert. #  1: Fermi energy shift (Ry) =    -9.4109E-03     5.1699E-26

      iter #   8 total cpu time :  2788.1 secs   av.it.:  11.1
      thresh= 7.670E-08 alpha_mix =  0.300 |ddv_scf|^2 =  1.233E-13

     Pert. #  1: Fermi energy shift (Ry) =    -9.4174E-03     5.1699E-26

      iter #   9 total cpu time :  2879.4 secs   av.it.:  10.7
      thresh= 3.512E-08 alpha_mix =  0.300 |ddv_scf|^2 =  4.456E-14

     Pert. #  1: Fermi energy shift (Ry) =    -9.4258E-03     5.1699E-26

      iter #  10 total cpu time :  2976.7 secs   av.it.:  11.5
      thresh= 2.111E-08 alpha_mix =  0.300 |ddv_scf|^2 =  7.504E-15

     End of self-consistent calculation

     Convergence has been achieved 


     Representation #   4 mode #   4

     Self-consistent Calculation

     Pert. #  1: Fermi energy shift (Ry) =     2.7169E-02     1.3553E-20

      iter #   1 total cpu time :  3055.4 secs   av.it.:   6.5
      thresh= 1.000E-02 alpha_mix =  0.300 |ddv_scf|^2 =  2.210E-06

     Pert. #  1: Fermi energy shift (Ry) =     3.8181E-03     2.6470E-23

      iter #   2 total cpu time :  3146.9 secs   av.it.:  10.7
      thresh= 1.487E-04 alpha_mix =  0.300 |ddv_scf|^2 =  5.153E-07

     Pert. #  1: Fermi energy shift (Ry) =     7.8280E-03    -6.6174E-24

      iter #   3 total cpu time :  3234.1 secs   av.it.:  10.2
      thresh= 7.178E-05 alpha_mix =  0.300 |ddv_scf|^2 =  5.838E-08

     Pert. #  1: Fermi energy shift (Ry) =     4.6649E-03    -2.6470E-23

      iter #   4 total cpu time :  3329.0 secs   av.it.:  11.2
      thresh= 2.416E-05 alpha_mix =  0.300 |ddv_scf|^2 =  1.312E-09

     Pert. #  1: Fermi energy shift (Ry) =     5.3377E-03    -6.6174E-24

      iter #   5 total cpu time :  3427.8 secs   av.it.:  11.8
      thresh= 3.622E-06 alpha_mix =  0.300 |ddv_scf|^2 =  4.962E-11

     Pert. #  1: Fermi energy shift (Ry) =     5.3487E-03     2.5849E-26

      iter #   6 total cpu time :  3523.7 secs   av.it.:  11.4
      thresh= 7.044E-07 alpha_mix =  0.300 |ddv_scf|^2 =  1.001E-11

     Pert. #  1: Fermi energy shift (Ry) =     5.3072E-03     5.1699E-26

      iter #   7 total cpu time :  3620.1 secs   av.it.:  11.5
      thresh= 3.165E-07 alpha_mix =  0.300 |ddv_scf|^2 =  1.972E-12

     Pert. #  1: Fermi energy shift (Ry) =     5.2817E-03     2.5849E-26

      iter #   8 total cpu time :  3717.8 secs   av.it.:  11.7
      thresh= 1.404E-07 alpha_mix =  0.300 |ddv_scf|^2 =  1.464E-13

     Pert. #  1: Fermi energy shift (Ry) =     5.2787E-03     6.4623E-27

      iter #   9 total cpu time :  3812.6 secs   av.it.:  11.2
      thresh= 3.826E-08 alpha_mix =  0.300 |ddv_scf|^2 =  3.520E-14

     Pert. #  1: Fermi energy shift (Ry) =     5.2800E-03    -1.2925E-26

      iter #  10 total cpu time :  3908.2 secs   av.it.:  11.3
      thresh= 1.876E-08 alpha_mix =  0.300 |ddv_scf|^2 =  6.000E-15

     End of self-consistent calculation

     Convergence has been achieved 


     Representation #   5 mode #   5

     Self-consistent Calculation

     Pert. #  1: Fermi energy shift (Ry) =     1.5686E-02     1.6941E-21

      iter #   1 total cpu time :  3986.9 secs   av.it.:   6.5
      thresh= 1.000E-02 alpha_mix =  0.300 |ddv_scf|^2 =  1.243E-06

     Pert. #  1: Fermi energy shift (Ry) =     2.1967E-03    -3.3087E-24

      iter #   2 total cpu time :  4077.9 secs   av.it.:  10.8
      thresh= 1.115E-04 alpha_mix =  0.300 |ddv_scf|^2 =  2.700E-07

     Pert. #  1: Fermi energy shift (Ry) =     4.8994E-03     3.3087E-24

      iter #   3 total cpu time :  4167.2 secs   av.it.:  10.6
      thresh= 5.196E-05 alpha_mix =  0.300 |ddv_scf|^2 =  5.360E-08

     Pert. #  1: Fermi energy shift (Ry) =     2.6760E-03    -3.3087E-24

      iter #   4 total cpu time :  4261.3 secs   av.it.:  11.1
      thresh= 2.315E-05 alpha_mix =  0.300 |ddv_scf|^2 =  1.293E-09

     Pert. #  1: Fermi energy shift (Ry) =     3.0993E-03    -2.0680E-25

      iter #   5 total cpu time :  4360.5 secs   av.it.:  11.9
      thresh= 3.596E-06 alpha_mix =  0.300 |ddv_scf|^2 =  3.763E-11

     Pert. #  1: Fermi energy shift (Ry) =     3.0795E-03     2.5849E-26

      iter #   6 total cpu time :  4456.2 secs   av.it.:  11.4
      thresh= 6.134E-07 alpha_mix =  0.300 |ddv_scf|^2 =  6.815E-12

     Pert. #  1: Fermi energy shift (Ry) =     3.0497E-03     1.2925E-26

      iter #   7 total cpu time :  4554.1 secs   av.it.:  11.7
      thresh= 2.611E-07 alpha_mix =  0.300 |ddv_scf|^2 =  9.404E-13

     Pert. #  1: Fermi energy shift (Ry) =     3.0426E-03     5.1699E-26

      iter #   8 total cpu time :  4649.7 secs   av.it.:  11.3
      thresh= 9.698E-08 alpha_mix =  0.300 |ddv_scf|^2 =  1.419E-13

     Pert. #  1: Fermi energy shift (Ry) =     3.0405E-03     1.0340E-25

      iter #   9 total cpu time :  4744.9 secs   av.it.:  11.3
      thresh= 3.767E-08 alpha_mix =  0.300 |ddv_scf|^2 =  3.079E-14

     Pert. #  1: Fermi energy shift (Ry) =     3.0419E-03     1.0340E-25

      iter #  10 total cpu time :  4840.2 secs   av.it.:  11.2
      thresh= 1.755E-08 alpha_mix =  0.300 |ddv_scf|^2 =  6.842E-15

     End of self-consistent calculation

     Convergence has been achieved 


     Representation #   6 mode #   6

     Self-consistent Calculation

     Pert. #  1: Fermi energy shift (Ry) =    -2.0775E-02     8.4703E-22

      iter #   1 total cpu time :  4922.4 secs   av.it.:   7.0
      thresh= 1.000E-02 alpha_mix =  0.300 |ddv_scf|^2 =  2.940E-05

     Pert. #  1: Fermi energy shift (Ry) =     4.2149E-02     5.2940E-23

      iter #   2 total cpu time :  5009.7 secs   av.it.:  10.2
      thresh= 5.422E-04 alpha_mix =  0.300 |ddv_scf|^2 =  7.567E-06

     Pert. #  1: Fermi energy shift (Ry) =     1.4989E-02     3.3087E-24

      iter #   3 total cpu time :  5093.0 secs   av.it.:   9.7
      thresh= 2.751E-04 alpha_mix =  0.300 |ddv_scf|^2 =  4.096E-08

     Pert. #  1: Fermi energy shift (Ry) =     1.0057E-02    -1.3235E-23

      iter #   4 total cpu time :  5188.0 secs   av.it.:  11.3
      thresh= 2.024E-05 alpha_mix =  0.300 |ddv_scf|^2 =  1.355E-09

     Pert. #  1: Fermi energy shift (Ry) =     9.5304E-03    -1.6544E-24

      iter #   5 total cpu time :  5282.0 secs   av.it.:  11.2
      thresh= 3.681E-06 alpha_mix =  0.300 |ddv_scf|^2 =  2.626E-10

     Pert. #  1: Fermi energy shift (Ry) =     9.3257E-03    -2.0680E-25

      iter #   6 total cpu time :  5380.9 secs   av.it.:  11.8
      thresh= 1.621E-06 alpha_mix =  0.300 |ddv_scf|^2 =  1.365E-11

     Pert. #  1: Fermi energy shift (Ry) =     9.3978E-03     5.1699E-26

      iter #   7 total cpu time :  5480.7 secs   av.it.:  12.0
      thresh= 3.695E-07 alpha_mix =  0.300 |ddv_scf|^2 =  5.882E-13

     Pert. #  1: Fermi energy shift (Ry) =     9.4108E-03     1.0340E-25

      iter #   8 total cpu time :  5574.6 secs   av.it.:  11.1
      thresh= 7.669E-08 alpha_mix =  0.300 |ddv_scf|^2 =  1.233E-13

     Pert. #  1: Fermi energy shift (Ry) =     9.4174E-03     1.0340E-25

      iter #   9 total cpu time :  5665.2 secs   av.it.:  10.7
      thresh= 3.512E-08 alpha_mix =  0.300 |ddv_scf|^2 =  4.456E-14

     Pert. #  1: Fermi energy shift (Ry) =     9.4257E-03     1.0340E-25

      iter #  10 total cpu time :  5762.0 secs   av.it.:  11.5
      thresh= 2.111E-08 alpha_mix =  0.300 |ddv_scf|^2 =  7.508E-15

     End of self-consistent calculation

     Convergence has been achieved 


     Representation #   7 mode #   7

     Self-consistent Calculation

     Pert. #  1: Fermi energy shift (Ry) =    -4.4914E-03     1.6941E-21

      iter #   1 total cpu time :  5821.7 secs   av.it.:   4.0
      thresh= 1.000E-02 alpha_mix =  0.300 |ddv_scf|^2 =  2.426E-08

     Pert. #  1: Fermi energy shift (Ry) =    -3.4299E-03    -6.6174E-24

      iter #   2 total cpu time :  5913.0 secs   av.it.:  10.8
      thresh= 1.558E-05 alpha_mix =  0.300 |ddv_scf|^2 =  5.909E-09

     Pert. #  1: Fermi energy shift (Ry) =    -4.1195E-03    -1.6544E-24

      iter #   3 total cpu time :  6002.0 secs   av.it.:  10.5
      thresh= 7.687E-06 alpha_mix =  0.300 |ddv_scf|^2 =  1.114E-09

     Pert. #  1: Fermi energy shift (Ry) =    -4.1027E-03     3.3087E-24

      iter #   4 total cpu time :  6098.8 secs   av.it.:  11.6
      thresh= 3.338E-06 alpha_mix =  0.300 |ddv_scf|^2 =  3.949E-11

     Pert. #  1: Fermi energy shift (Ry) =    -3.9923E-03     4.1359E-25

      iter #   5 total cpu time :  6197.8 secs   av.it.:  11.8
      thresh= 6.284E-07 alpha_mix =  0.300 |ddv_scf|^2 =  2.916E-12

     Pert. #  1: Fermi energy shift (Ry) =    -3.9777E-03    -2.0680E-25

      iter #   6 total cpu time :  6291.4 secs   av.it.:  11.0
      thresh= 1.707E-07 alpha_mix =  0.300 |ddv_scf|^2 =  7.213E-13

     Pert. #  1: Fermi energy shift (Ry) =    -3.9760E-03    -2.0680E-25

      iter #   7 total cpu time :  6381.7 secs   av.it.:  10.6
      thresh= 8.493E-08 alpha_mix =  0.300 |ddv_scf|^2 =  2.457E-13

     Pert. #  1: Fermi energy shift (Ry) =    -3.9774E-03    -2.0680E-25

      iter #   8 total cpu time :  6478.2 secs   av.it.:  11.5
      thresh= 4.957E-08 alpha_mix =  0.300 |ddv_scf|^2 =  1.131E-14

     Pert. #  1: Fermi energy shift (Ry) =    -3.9771E-03    -2.0680E-25

      iter #   9 total cpu time :  6570.6 secs   av.it.:  10.9
      thresh= 1.063E-08 alpha_mix =  0.300 |ddv_scf|^2 =  3.543E-15

     End of self-consistent calculation

     Convergence has been achieved 


     Representation #   8 mode #   8

     Self-consistent Calculation

     Pert. #  1: Fermi energy shift (Ry) =    -2.6193E-03     1.6941E-21

      iter #   1 total cpu time :  6630.2 secs   av.it.:   4.0
      thresh= 1.000E-02 alpha_mix =  0.300 |ddv_scf|^2 =  1.598E-08

     Pert. #  1: Fermi energy shift (Ry) =    -1.9821E-03     2.0680E-25

      iter #   2 total cpu time :  6721.7 secs   av.it.:  10.8
      thresh= 1.264E-05 alpha_mix =  0.300 |ddv_scf|^2 =  3.809E-09

     Pert. #  1: Fermi energy shift (Ry) =    -2.4747E-03    -2.0680E-25

      iter #   3 total cpu time :  6813.8 secs   av.it.:  10.8
      thresh= 6.172E-06 alpha_mix =  0.300 |ddv_scf|^2 =  9.764E-10

     Pert. #  1: Fermi energy shift (Ry) =    -2.3689E-03     1.0340E-25

      iter #   4 total cpu time :  6910.2 secs   av.it.:  11.5
      thresh= 3.125E-06 alpha_mix =  0.300 |ddv_scf|^2 =  3.865E-11

     Pert. #  1: Fermi energy shift (Ry) =    -2.3021E-03     5.1699E-26

      iter #   5 total cpu time :  7010.2 secs   av.it.:  11.9
      thresh= 6.217E-07 alpha_mix =  0.300 |ddv_scf|^2 =  1.856E-12

     Pert. #  1: Fermi energy shift (Ry) =    -2.2972E-03     3.2312E-27

      iter #   6 total cpu time :  7101.9 secs   av.it.:  10.8
      thresh= 1.362E-07 alpha_mix =  0.300 |ddv_scf|^2 =  6.026E-13

     Pert. #  1: Fermi energy shift (Ry) =    -2.2969E-03     1.6156E-27

      iter #   7 total cpu time :  7193.5 secs   av.it.:  10.8
      thresh= 7.763E-08 alpha_mix =  0.300 |ddv_scf|^2 =  1.625E-13

     Pert. #  1: Fermi energy shift (Ry) =    -2.2975E-03     6.4623E-27

      iter #   8 total cpu time :  7288.3 secs   av.it.:  11.3
      thresh= 4.031E-08 alpha_mix =  0.300 |ddv_scf|^2 =  1.006E-14

     Pert. #  1: Fermi energy shift (Ry) =    -2.2973E-03    -3.2312E-27

      iter #   9 total cpu time :  7381.6 secs   av.it.:  11.1
      thresh= 1.003E-08 alpha_mix =  0.300 |ddv_scf|^2 =  2.648E-15

     End of self-consistent calculation

     Convergence has been achieved 


     Representation #   9 mode #   9

     Self-consistent Calculation

     Pert. #  1: Fermi energy shift (Ry) =     4.3543E-03    -1.3235E-23

      iter #   1 total cpu time :  7441.5 secs   av.it.:   4.0
      thresh= 1.000E-02 alpha_mix =  0.300 |ddv_scf|^2 =  2.801E-07

     Pert. #  1: Fermi energy shift (Ry) =    -3.5952E-03    -6.6174E-24

      iter #   2 total cpu time :  7529.2 secs   av.it.:  10.2
      thresh= 5.293E-05 alpha_mix =  0.300 |ddv_scf|^2 =  7.207E-08

     Pert. #  1: Fermi energy shift (Ry) =    -1.4619E-03    -4.1359E-25

      iter #   3 total cpu time :  7613.2 secs   av.it.:   9.8
      thresh= 2.685E-05 alpha_mix =  0.300 |ddv_scf|^2 =  8.217E-10

     Pert. #  1: Fermi energy shift (Ry) =    -1.7987E-03     8.2718E-25

      iter #   4 total cpu time :  7709.5 secs   av.it.:  11.5
      thresh= 2.867E-06 alpha_mix =  0.300 |ddv_scf|^2 =  4.303E-11

     Pert. #  1: Fermi energy shift (Ry) =    -1.6771E-03     5.1699E-26

      iter #   5 total cpu time :  7800.2 secs   av.it.:  10.7
      thresh= 6.560E-07 alpha_mix =  0.300 |ddv_scf|^2 =  1.298E-11

     Pert. #  1: Fermi energy shift (Ry) =    -1.5086E-03    -5.1699E-26

      iter #   6 total cpu time :  7896.4 secs   av.it.:  11.4
      thresh= 3.603E-07 alpha_mix =  0.300 |ddv_scf|^2 =  8.366E-13

     Pert. #  1: Fermi energy shift (Ry) =    -1.4875E-03    -2.5849E-26

      iter #   7 total cpu time :  7988.6 secs   av.it.:  10.9
      thresh= 9.146E-08 alpha_mix =  0.300 |ddv_scf|^2 =  2.325E-13

     Pert. #  1: Fermi energy shift (Ry) =    -1.4881E-03    -2.5849E-26

      iter #   8 total cpu time :  8086.3 secs   av.it.:  11.6
      thresh= 4.822E-08 alpha_mix =  0.300 |ddv_scf|^2 =  7.499E-15

     End of self-consistent calculation

     Convergence has been achieved 


     Representation #  10 mode #  10

     Self-consistent Calculation

     Pert. #  1: Fermi energy shift (Ry) =     4.4905E-03     1.6941E-21

      iter #   1 total cpu time :  8146.3 secs   av.it.:   4.0
      thresh= 1.000E-02 alpha_mix =  0.300 |ddv_scf|^2 =  2.426E-08

     Pert. #  1: Fermi energy shift (Ry) =     3.4295E-03    -6.6174E-24

      iter #   2 total cpu time :  8237.7 secs   av.it.:  10.8
      thresh= 1.558E-05 alpha_mix =  0.300 |ddv_scf|^2 =  5.909E-09

     Pert. #  1: Fermi energy shift (Ry) =     4.1192E-03    -3.3087E-24

      iter #   3 total cpu time :  8327.3 secs   av.it.:  10.5
      thresh= 7.687E-06 alpha_mix =  0.300 |ddv_scf|^2 =  1.114E-09

     Pert. #  1: Fermi energy shift (Ry) =     4.1026E-03     3.3087E-24

      iter #   4 total cpu time :  8424.3 secs   av.it.:  11.6
      thresh= 3.337E-06 alpha_mix =  0.300 |ddv_scf|^2 =  3.949E-11

     Pert. #  1: Fermi energy shift (Ry) =     3.9921E-03     2.0680E-25

      iter #   5 total cpu time :  8523.1 secs   av.it.:  11.8
      thresh= 6.284E-07 alpha_mix =  0.300 |ddv_scf|^2 =  2.920E-12

     Pert. #  1: Fermi energy shift (Ry) =     3.9775E-03    -2.0680E-25

      iter #   6 total cpu time :  8616.5 secs   av.it.:  11.0
      thresh= 1.709E-07 alpha_mix =  0.300 |ddv_scf|^2 =  7.215E-13

     Pert. #  1: Fermi energy shift (Ry) =     3.9758E-03    -4.1359E-25

      iter #   7 total cpu time :  8706.8 secs   av.it.:  10.6
      thresh= 8.494E-08 alpha_mix =  0.300 |ddv_scf|^2 =  2.458E-13

     Pert. #  1: Fermi energy shift (Ry) =     3.9772E-03    -2.0680E-25

      iter #   8 total cpu time :  8803.6 secs   av.it.:  11.5
      thresh= 4.958E-08 alpha_mix =  0.300 |ddv_scf|^2 =  1.134E-14

     Pert. #  1: Fermi energy shift (Ry) =     3.9769E-03    -4.1359E-25

      iter #   9 total cpu time :  8895.7 secs   av.it.:  10.8
      thresh= 1.065E-08 alpha_mix =  0.300 |ddv_scf|^2 =  3.557E-15

     End of self-consistent calculation

     Convergence has been achieved 


     Representation #  11 mode #  11

     Self-consistent Calculation

     Pert. #  1: Fermi energy shift (Ry) =     2.6205E-03     1.6941E-21

      iter #   1 total cpu time :  8955.3 secs   av.it.:   4.0
      thresh= 1.000E-02 alpha_mix =  0.300 |ddv_scf|^2 =  1.598E-08

     Pert. #  1: Fermi energy shift (Ry) =     1.9828E-03     2.0680E-25

      iter #   2 total cpu time :  9047.2 secs   av.it.:  10.8
      thresh= 1.264E-05 alpha_mix =  0.300 |ddv_scf|^2 =  3.809E-09

     Pert. #  1: Fermi energy shift (Ry) =     2.4751E-03    -2.0680E-25

      iter #   3 total cpu time :  9139.1 secs   av.it.:  10.8
      thresh= 6.172E-06 alpha_mix =  0.300 |ddv_scf|^2 =  9.764E-10

     Pert. #  1: Fermi energy shift (Ry) =     2.3692E-03     1.0340E-25

      iter #   4 total cpu time :  9235.6 secs   av.it.:  11.5
      thresh= 3.125E-06 alpha_mix =  0.300 |ddv_scf|^2 =  3.865E-11

     Pert. #  1: Fermi energy shift (Ry) =     2.3024E-03     5.1699E-26

      iter #   5 total cpu time :  9335.1 secs   av.it.:  11.9
      thresh= 6.217E-07 alpha_mix =  0.300 |ddv_scf|^2 =  1.855E-12

     Pert. #  1: Fermi energy shift (Ry) =     2.2976E-03     1.6156E-27

      iter #   6 total cpu time :  9427.0 secs   av.it.:  10.8
      thresh= 1.362E-07 alpha_mix =  0.300 |ddv_scf|^2 =  6.021E-13

     Pert. #  1: Fermi energy shift (Ry) =     2.2972E-03    -8.0779E-28

      iter #   7 total cpu time :  9518.7 secs   av.it.:  10.8
      thresh= 7.759E-08 alpha_mix =  0.300 |ddv_scf|^2 =  1.621E-13

     Pert. #  1: Fermi energy shift (Ry) =     2.2979E-03     1.6156E-27

      iter #   8 total cpu time :  9614.2 secs   av.it.:  11.3
      thresh= 4.026E-08 alpha_mix =  0.300 |ddv_scf|^2 =  1.006E-14

     Pert. #  1: Fermi energy shift (Ry) =     2.2976E-03    -6.4623E-27

      iter #   9 total cpu time :  9707.7 secs   av.it.:  11.1
      thresh= 1.003E-08 alpha_mix =  0.300 |ddv_scf|^2 =  2.657E-15

     End of self-consistent calculation

     Convergence has been achieved 


     Representation #  12 mode #  12

     Self-consistent Calculation

     Pert. #  1: Fermi energy shift (Ry) =    -4.3543E-03    -1.3235E-23

      iter #   1 total cpu time :  9768.0 secs   av.it.:   4.0
      thresh= 1.000E-02 alpha_mix =  0.300 |ddv_scf|^2 =  2.801E-07

     Pert. #  1: Fermi energy shift (Ry) =     3.5952E-03    -6.6174E-24

      iter #   2 total cpu time :  9856.2 secs   av.it.:  10.2
      thresh= 5.293E-05 alpha_mix =  0.300 |ddv_scf|^2 =  7.207E-08

     Pert. #  1: Fermi energy shift (Ry) =     1.4619E-03    -4.1359E-25

      iter #   3 total cpu time :  9941.0 secs   av.it.:   9.8
      thresh= 2.685E-05 alpha_mix =  0.300 |ddv_scf|^2 =  8.217E-10

     Pert. #  1: Fermi energy shift (Ry) =     1.7987E-03     4.1359E-25

      iter #   4 total cpu time : 10037.2 secs   av.it.:  11.5
      thresh= 2.867E-06 alpha_mix =  0.300 |ddv_scf|^2 =  4.303E-11

     Pert. #  1: Fermi energy shift (Ry) =     1.6771E-03     2.5849E-26

      iter #   5 total cpu time : 10128.3 secs   av.it.:  10.7
      thresh= 6.560E-07 alpha_mix =  0.300 |ddv_scf|^2 =  1.298E-11

     Pert. #  1: Fermi energy shift (Ry) =     1.5086E-03    -1.0340E-25

      iter #   6 total cpu time : 10224.6 secs   av.it.:  11.4
      thresh= 3.603E-07 alpha_mix =  0.300 |ddv_scf|^2 =  8.366E-13

     Pert. #  1: Fermi energy shift (Ry) =     1.4875E-03    -5.1699E-26

      iter #   7 total cpu time : 10316.4 secs   av.it.:  10.9
      thresh= 9.146E-08 alpha_mix =  0.300 |ddv_scf|^2 =  2.325E-13

     Pert. #  1: Fermi energy shift (Ry) =     1.4881E-03    -5.1699E-26

      iter #   8 total cpu time : 10413.9 secs   av.it.:  11.6
      thresh= 4.822E-08 alpha_mix =  0.300 |ddv_scf|^2 =  7.499E-15

     End of self-consistent calculation

     Convergence has been achieved 


     Representation #  13 mode #  13

     Self-consistent Calculation

     Pert. #  1: Fermi energy shift (Ry) =     3.5999E-03     3.3881E-21

      iter #   1 total cpu time : 10472.8 secs   av.it.:   4.0
      thresh= 1.000E-02 alpha_mix =  0.300 |ddv_scf|^2 =  2.327E-08

     Pert. #  1: Fermi energy shift (Ry) =     3.9746E-03    -4.1359E-25

      iter #   2 total cpu time : 10564.1 secs   av.it.:  10.8
      thresh= 1.525E-05 alpha_mix =  0.300 |ddv_scf|^2 =  5.074E-09

     Pert. #  1: Fermi energy shift (Ry) =     3.1965E-03     3.3087E-24

      iter #   3 total cpu time : 10653.3 secs   av.it.:  10.5
      thresh= 7.123E-06 alpha_mix =  0.300 |ddv_scf|^2 =  1.041E-09

     Pert. #  1: Fermi energy shift (Ry) =     2.8814E-03     8.2718E-25

      iter #   4 total cpu time : 10749.4 secs   av.it.:  11.5
      thresh= 3.226E-06 alpha_mix =  0.300 |ddv_scf|^2 =  4.280E-11

     Pert. #  1: Fermi energy shift (Ry) =     2.8278E-03     8.2718E-25

      iter #   5 total cpu time : 10840.1 secs   av.it.:  10.7
      thresh= 6.542E-07 alpha_mix =  0.300 |ddv_scf|^2 =  1.474E-11

     Pert. #  1: Fermi energy shift (Ry) =     2.7964E-03     8.2718E-25

      iter #   6 total cpu time : 10938.2 secs   av.it.:  11.8
      thresh= 3.839E-07 alpha_mix =  0.300 |ddv_scf|^2 =  6.862E-13

     Pert. #  1: Fermi energy shift (Ry) =     2.7910E-03     4.1359E-25

      iter #   7 total cpu time : 11027.6 secs   av.it.:  10.6
      thresh= 8.284E-08 alpha_mix =  0.300 |ddv_scf|^2 =  2.198E-13

     Pert. #  1: Fermi energy shift (Ry) =     2.7886E-03     4.1359E-25

      iter #   8 total cpu time : 11124.3 secs   av.it.:  11.5
      thresh= 4.688E-08 alpha_mix =  0.300 |ddv_scf|^2 =  1.437E-14

     Pert. #  1: Fermi energy shift (Ry) =     2.7902E-03     4.1359E-25

      iter #   9 total cpu time : 11216.5 secs   av.it.:  10.8
      thresh= 1.199E-08 alpha_mix =  0.300 |ddv_scf|^2 =  4.178E-15

     End of self-consistent calculation

     Convergence has been achieved 


     Representation #  14 mode #  14

     Self-consistent Calculation

     Pert. #  1: Fermi energy shift (Ry) =     2.0683E-03    -2.1176E-22

      iter #   1 total cpu time : 11275.6 secs   av.it.:   3.9
      thresh= 1.000E-02 alpha_mix =  0.300 |ddv_scf|^2 =  1.528E-08

     Pert. #  1: Fermi energy shift (Ry) =     2.2887E-03    -8.2718E-25

      iter #   2 total cpu time : 11366.5 secs   av.it.:  10.7
      thresh= 1.236E-05 alpha_mix =  0.300 |ddv_scf|^2 =  3.450E-09

     Pert. #  1: Fermi energy shift (Ry) =     1.7370E-03     1.0340E-25

      iter #   3 total cpu time : 11458.4 secs   av.it.:  10.8
      thresh= 5.873E-06 alpha_mix =  0.300 |ddv_scf|^2 =  8.648E-10

     Pert. #  1: Fermi energy shift (Ry) =     1.6584E-03     2.0680E-25

      iter #   4 total cpu time : 11553.9 secs   av.it.:  11.4
      thresh= 2.941E-06 alpha_mix =  0.300 |ddv_scf|^2 =  3.516E-11

     Pert. #  1: Fermi energy shift (Ry) =     1.6230E-03     6.4623E-27

      iter #   5 total cpu time : 11646.4 secs   av.it.:  11.0
      thresh= 5.930E-07 alpha_mix =  0.300 |ddv_scf|^2 =  1.152E-11

     Pert. #  1: Fermi energy shift (Ry) =     1.6122E-03     1.0340E-25

      iter #   6 total cpu time : 11743.9 secs   av.it.:  11.6
      thresh= 3.394E-07 alpha_mix =  0.300 |ddv_scf|^2 =  6.947E-13

     Pert. #  1: Fermi energy shift (Ry) =     1.6089E-03     5.1699E-26

      iter #   7 total cpu time : 11834.0 secs   av.it.:  10.6
      thresh= 8.335E-08 alpha_mix =  0.300 |ddv_scf|^2 =  2.193E-13

     Pert. #  1: Fermi energy shift (Ry) =     1.6074E-03     5.1699E-26

      iter #   8 total cpu time : 11929.8 secs   av.it.:  11.5
      thresh= 4.683E-08 alpha_mix =  0.300 |ddv_scf|^2 =  1.191E-14

     Pert. #  1: Fermi energy shift (Ry) =     1.6086E-03     5.1699E-26

      iter #   9 total cpu time : 12021.1 secs   av.it.:  10.8
      thresh= 1.091E-08 alpha_mix =  0.300 |ddv_scf|^2 =  3.872E-15

     End of self-consistent calculation

     Convergence has been achieved 


     Representation #  15 mode #  15

     Self-consistent Calculation

     Pert. #  1: Fermi energy shift (Ry) =     1.1007E-03     1.6941E-21

      iter #   1 total cpu time : 12081.4 secs   av.it.:   4.0
      thresh= 1.000E-02 alpha_mix =  0.300 |ddv_scf|^2 =  2.562E-07

     Pert. #  1: Fermi energy shift (Ry) =    -3.7305E-03    -6.6174E-24

      iter #   2 total cpu time : 12170.4 secs   av.it.:  10.4
      thresh= 5.061E-05 alpha_mix =  0.300 |ddv_scf|^2 =  5.494E-08

     Pert. #  1: Fermi energy shift (Ry) =    -1.8450E-03    -4.1359E-25

      iter #   3 total cpu time : 12256.4 secs   av.it.:  10.0
      thresh= 2.344E-05 alpha_mix =  0.300 |ddv_scf|^2 =  9.382E-10

     Pert. #  1: Fermi energy shift (Ry) =    -1.8014E-03     4.1359E-25

      iter #   4 total cpu time : 12350.3 secs   av.it.:  11.1
      thresh= 3.063E-06 alpha_mix =  0.300 |ddv_scf|^2 =  1.917E-10

     Pert. #  1: Fermi energy shift (Ry) =    -1.6602E-03    -1.0340E-25

      iter #   5 total cpu time : 12445.6 secs   av.it.:  11.3
      thresh= 1.385E-06 alpha_mix =  0.300 |ddv_scf|^2 =  1.550E-11

     Pert. #  1: Fermi energy shift (Ry) =    -1.6339E-03     2.0680E-25

      iter #   6 total cpu time : 12543.0 secs   av.it.:  11.6
      thresh= 3.937E-07 alpha_mix =  0.300 |ddv_scf|^2 =  7.727E-13

     Pert. #  1: Fermi energy shift (Ry) =    -1.6378E-03     1.0340E-25

      iter #   7 total cpu time : 12635.1 secs   av.it.:  10.9
      thresh= 8.790E-08 alpha_mix =  0.300 |ddv_scf|^2 =  1.851E-13

     Pert. #  1: Fermi energy shift (Ry) =    -1.6433E-03     1.0340E-25

      iter #   8 total cpu time : 12730.3 secs   av.it.:  11.3
      thresh= 4.302E-08 alpha_mix =  0.300 |ddv_scf|^2 =  1.959E-14

     Pert. #  1: Fermi energy shift (Ry) =    -1.6441E-03     1.0340E-25

      iter #   9 total cpu time : 12823.9 secs   av.it.:  11.0
      thresh= 1.400E-08 alpha_mix =  0.300 |ddv_scf|^2 =  4.751E-15

     End of self-consistent calculation

     Convergence has been achieved 


     Representation #  16 mode #  16

     Self-consistent Calculation

     Pert. #  1: Fermi energy shift (Ry) =    -3.6012E-03     3.3881E-21

      iter #   1 total cpu time : 12882.5 secs   av.it.:   4.0
      thresh= 1.000E-02 alpha_mix =  0.300 |ddv_scf|^2 =  2.327E-08

     Pert. #  1: Fermi energy shift (Ry) =    -3.9763E-03    -8.2718E-25

      iter #   2 total cpu time : 12974.1 secs   av.it.:  10.8
      thresh= 1.525E-05 alpha_mix =  0.300 |ddv_scf|^2 =  5.074E-09

     Pert. #  1: Fermi energy shift (Ry) =    -3.1985E-03     3.3087E-24

      iter #   3 total cpu time : 13064.2 secs   av.it.:  10.5
      thresh= 7.123E-06 alpha_mix =  0.300 |ddv_scf|^2 =  1.041E-09

     Pert. #  1: Fermi energy shift (Ry) =    -2.8836E-03     8.2718E-25

      iter #   4 total cpu time : 13160.7 secs   av.it.:  11.5
      thresh= 3.226E-06 alpha_mix =  0.300 |ddv_scf|^2 =  4.280E-11

     Pert. #  1: Fermi energy shift (Ry) =    -2.8300E-03     8.2718E-25

      iter #   5 total cpu time : 13251.4 secs   av.it.:  10.7
      thresh= 6.542E-07 alpha_mix =  0.300 |ddv_scf|^2 =  1.474E-11

     Pert. #  1: Fermi energy shift (Ry) =    -2.7987E-03     4.1359E-25

      iter #   6 total cpu time : 13349.6 secs   av.it.:  11.8
      thresh= 3.839E-07 alpha_mix =  0.300 |ddv_scf|^2 =  6.862E-13

     Pert. #  1: Fermi energy shift (Ry) =    -2.7932E-03     4.1359E-25

      iter #   7 total cpu time : 13439.5 secs   av.it.:  10.6
      thresh= 8.284E-08 alpha_mix =  0.300 |ddv_scf|^2 =  2.198E-13

     Pert. #  1: Fermi energy shift (Ry) =    -2.7908E-03     2.0680E-25

      iter #   8 total cpu time : 13536.1 secs   av.it.:  11.5
      thresh= 4.688E-08 alpha_mix =  0.300 |ddv_scf|^2 =  1.437E-14

     Pert. #  1: Fermi energy shift (Ry) =    -2.7924E-03     4.1359E-25

      iter #   9 total cpu time : 13627.2 secs   av.it.:  10.8
      thresh= 1.199E-08 alpha_mix =  0.300 |ddv_scf|^2 =  4.178E-15

     End of self-consistent calculation

     Convergence has been achieved 


     Representation #  17 mode #  17

     Self-consistent Calculation

     Pert. #  1: Fermi energy shift (Ry) =    -2.0663E-03    -2.1176E-22

      iter #   1 total cpu time : 13686.1 secs   av.it.:   3.9
      thresh= 1.000E-02 alpha_mix =  0.300 |ddv_scf|^2 =  1.528E-08

     Pert. #  1: Fermi energy shift (Ry) =    -2.2858E-03    -8.2718E-25

      iter #   2 total cpu time : 13776.7 secs   av.it.:  10.7
      thresh= 1.236E-05 alpha_mix =  0.300 |ddv_scf|^2 =  3.450E-09

     Pert. #  1: Fermi energy shift (Ry) =    -1.7336E-03     5.1699E-26

      iter #   3 total cpu time : 13867.9 secs   av.it.:  10.8
      thresh= 5.873E-06 alpha_mix =  0.300 |ddv_scf|^2 =  8.648E-10

     Pert. #  1: Fermi energy shift (Ry) =    -1.6546E-03     2.0680E-25

      iter #   4 total cpu time : 13963.6 secs   av.it.:  11.4
      thresh= 2.941E-06 alpha_mix =  0.300 |ddv_scf|^2 =  3.516E-11

     Pert. #  1: Fermi energy shift (Ry) =    -1.6192E-03    -1.2925E-26

      iter #   5 total cpu time : 14056.3 secs   av.it.:  11.0
      thresh= 5.930E-07 alpha_mix =  0.300 |ddv_scf|^2 =  1.152E-11

     Pert. #  1: Fermi energy shift (Ry) =    -1.6083E-03     5.1699E-26

      iter #   6 total cpu time : 14153.9 secs   av.it.:  11.6
      thresh= 3.394E-07 alpha_mix =  0.300 |ddv_scf|^2 =  6.947E-13

     Pert. #  1: Fermi energy shift (Ry) =    -1.6051E-03     2.5849E-26

      iter #   7 total cpu time : 14243.6 secs   av.it.:  10.6
      thresh= 8.335E-08 alpha_mix =  0.300 |ddv_scf|^2 =  2.193E-13

     Pert. #  1: Fermi energy shift (Ry) =    -1.6036E-03     2.5849E-26

      iter #   8 total cpu time : 14340.1 secs   av.it.:  11.5
      thresh= 4.683E-08 alpha_mix =  0.300 |ddv_scf|^2 =  1.191E-14

     Pert. #  1: Fermi energy shift (Ry) =    -1.6048E-03     2.5849E-26

      iter #   9 total cpu time : 14432.0 secs   av.it.:  10.8
      thresh= 1.091E-08 alpha_mix =  0.300 |ddv_scf|^2 =  3.873E-15

     End of self-consistent calculation

     Convergence has been achieved 


     Representation #  18 mode #  18

     Self-consistent Calculation

     Pert. #  1: Fermi energy shift (Ry) =    -1.1008E-03     1.6941E-21

      iter #   1 total cpu time : 14492.2 secs   av.it.:   4.0
      thresh= 1.000E-02 alpha_mix =  0.300 |ddv_scf|^2 =  2.562E-07

     Pert. #  1: Fermi energy shift (Ry) =     3.7305E-03    -6.6174E-24

      iter #   2 total cpu time : 14581.0 secs   av.it.:  10.4
      thresh= 5.061E-05 alpha_mix =  0.300 |ddv_scf|^2 =  5.494E-08

     Pert. #  1: Fermi energy shift (Ry) =     1.8450E-03    -4.1359E-25

      iter #   3 total cpu time : 14666.9 secs   av.it.:  10.0
      thresh= 2.344E-05 alpha_mix =  0.300 |ddv_scf|^2 =  9.382E-10

     Pert. #  1: Fermi energy shift (Ry) =     1.8014E-03     2.0680E-25

      iter #   4 total cpu time : 14760.8 secs   av.it.:  11.1
      thresh= 3.063E-06 alpha_mix =  0.300 |ddv_scf|^2 =  1.917E-10

     Pert. #  1: Fermi energy shift (Ry) =     1.6602E-03    -1.0340E-25

      iter #   5 total cpu time : 14855.2 secs   av.it.:  11.3
      thresh= 1.385E-06 alpha_mix =  0.300 |ddv_scf|^2 =  1.550E-11

     Pert. #  1: Fermi energy shift (Ry) =     1.6339E-03     2.0680E-25

      iter #   6 total cpu time : 14952.3 secs   av.it.:  11.6
      thresh= 3.937E-07 alpha_mix =  0.300 |ddv_scf|^2 =  7.727E-13

     Pert. #  1: Fermi energy shift (Ry) =     1.6378E-03     1.0340E-25

      iter #   7 total cpu time : 15044.7 secs   av.it.:  10.9
      thresh= 8.790E-08 alpha_mix =  0.300 |ddv_scf|^2 =  1.851E-13

     Pert. #  1: Fermi energy shift (Ry) =     1.6433E-03     1.0340E-25

      iter #   8 total cpu time : 15139.9 secs   av.it.:  11.3
      thresh= 4.302E-08 alpha_mix =  0.300 |ddv_scf|^2 =  1.959E-14

     Pert. #  1: Fermi energy shift (Ry) =     1.6441E-03     1.0340E-25

      iter #   9 total cpu time : 15232.5 secs   av.it.:  11.0
      thresh= 1.400E-08 alpha_mix =  0.300 |ddv_scf|^2 =  4.751E-15

     End of self-consistent calculation

     Convergence has been achieved 


     Representation #  19 mode #  19

     Self-consistent Calculation

     Pert. #  1: Fermi energy shift (Ry) =    -3.2808E-03     6.7763E-21

      iter #   1 total cpu time : 15291.4 secs   av.it.:   3.9
      thresh= 1.000E-02 alpha_mix =  0.300 |ddv_scf|^2 =  2.476E-08

     Pert. #  1: Fermi energy shift (Ry) =    -4.7560E-03    -3.3087E-24

      iter #   2 total cpu time : 15382.4 secs   av.it.:  10.7
      thresh= 1.574E-05 alpha_mix =  0.300 |ddv_scf|^2 =  4.575E-09

     Pert. #  1: Fermi energy shift (Ry) =    -4.9025E-03    -4.1359E-25

      iter #   3 total cpu time : 15472.0 secs   av.it.:  10.5
      thresh= 6.764E-06 alpha_mix =  0.300 |ddv_scf|^2 =  9.219E-10

     Pert. #  1: Fermi energy shift (Ry) =    -5.4004E-03     8.2718E-25

      iter #   4 total cpu time : 15568.2 secs   av.it.:  11.5
      thresh= 3.036E-06 alpha_mix =  0.300 |ddv_scf|^2 =  4.368E-11

     Pert. #  1: Fermi energy shift (Ry) =    -5.3782E-03     4.1359E-25

      iter #   5 total cpu time : 15660.4 secs   av.it.:  10.9
      thresh= 6.609E-07 alpha_mix =  0.300 |ddv_scf|^2 =  1.519E-11

     Pert. #  1: Fermi energy shift (Ry) =    -5.3994E-03     2.0680E-25

      iter #   6 total cpu time : 15758.9 secs   av.it.:  11.7
      thresh= 3.897E-07 alpha_mix =  0.300 |ddv_scf|^2 =  9.052E-13

     Pert. #  1: Fermi energy shift (Ry) =    -5.4049E-03     4.1359E-25

      iter #   7 total cpu time : 15848.0 secs   av.it.:  10.5
      thresh= 9.514E-08 alpha_mix =  0.300 |ddv_scf|^2 =  3.084E-13

     Pert. #  1: Fermi energy shift (Ry) =    -5.4082E-03     4.1359E-25

      iter #   8 total cpu time : 15944.0 secs   av.it.:  11.3
      thresh= 5.554E-08 alpha_mix =  0.300 |ddv_scf|^2 =  3.051E-14

     Pert. #  1: Fermi energy shift (Ry) =    -5.4088E-03     4.1359E-25

      iter #   9 total cpu time : 16039.3 secs   av.it.:  11.3
      thresh= 1.747E-08 alpha_mix =  0.300 |ddv_scf|^2 =  3.799E-15

     End of self-consistent calculation

     Convergence has been achieved 


     Representation #  20 mode #  20

     Self-consistent Calculation

     Pert. #  1: Fermi energy shift (Ry) =    -5.1733E-03     6.7763E-21

      iter #   1 total cpu time : 16097.7 secs   av.it.:   3.8
      thresh= 1.000E-02 alpha_mix =  0.300 |ddv_scf|^2 =  1.427E-08

     Pert. #  1: Fermi energy shift (Ry) =    -3.1162E-03    -3.3087E-24

      iter #   2 total cpu time : 16189.4 secs   av.it.:  10.8
      thresh= 1.194E-05 alpha_mix =  0.300 |ddv_scf|^2 =  3.093E-09

     Pert. #  1: Fermi energy shift (Ry) =    -1.9234E-03    -8.2718E-25

      iter #   3 total cpu time : 16281.0 secs   av.it.:  10.8
      thresh= 5.561E-06 alpha_mix =  0.300 |ddv_scf|^2 =  7.401E-10

     Pert. #  1: Fermi energy shift (Ry) =    -1.2129E-03     4.1359E-25

      iter #   4 total cpu time : 16377.5 secs   av.it.:  11.4
      thresh= 2.720E-06 alpha_mix =  0.300 |ddv_scf|^2 =  3.753E-11

     Pert. #  1: Fermi energy shift (Ry) =    -1.2869E-03     2.5849E-26

      iter #   5 total cpu time : 16471.9 secs   av.it.:  11.2
      thresh= 6.126E-07 alpha_mix =  0.300 |ddv_scf|^2 =  1.041E-11

     Pert. #  1: Fermi energy shift (Ry) =    -1.3989E-03    -5.1699E-26

      iter #   6 total cpu time : 16568.5 secs   av.it.:  11.6
      thresh= 3.226E-07 alpha_mix =  0.300 |ddv_scf|^2 =  7.623E-13

     Pert. #  1: Fermi energy shift (Ry) =    -1.4122E-03     2.5849E-26

      iter #   7 total cpu time : 16656.6 secs   av.it.:  10.3
      thresh= 8.731E-08 alpha_mix =  0.300 |ddv_scf|^2 =  2.814E-13

     Pert. #  1: Fermi energy shift (Ry) =    -1.4306E-03     4.0390E-28

      iter #   8 total cpu time : 16753.6 secs   av.it.:  11.6
      thresh= 5.305E-08 alpha_mix =  0.300 |ddv_scf|^2 =  9.512E-15

     End of self-consistent calculation

     Convergence has been achieved 


     Representation #  21 mode #  21

     Self-consistent Calculation

     Pert. #  1: Fermi energy shift (Ry) =    -8.1128E-03    -1.6941E-21

      iter #   1 total cpu time : 16814.0 secs   av.it.:   4.0
      thresh= 1.000E-02 alpha_mix =  0.300 |ddv_scf|^2 =  2.494E-07

     Pert. #  1: Fermi energy shift (Ry) =    -6.0378E-03     6.6174E-24

      iter #   2 total cpu time : 16902.2 secs   av.it.:  10.3
      thresh= 4.994E-05 alpha_mix =  0.300 |ddv_scf|^2 =  4.250E-08

     Pert. #  1: Fermi energy shift (Ry) =    -6.8791E-03    -1.6544E-24

      iter #   3 total cpu time : 16989.0 secs   av.it.:  10.0
      thresh= 2.061E-05 alpha_mix =  0.300 |ddv_scf|^2 =  8.519E-10

     Pert. #  1: Fermi energy shift (Ry) =    -6.7976E-03    -4.1359E-25

      iter #   4 total cpu time : 17085.1 secs   av.it.:  11.4
      thresh= 2.919E-06 alpha_mix =  0.300 |ddv_scf|^2 =  1.452E-10

     Pert. #  1: Fermi energy shift (Ry) =    -6.8730E-03     4.1359E-25

      iter #   5 total cpu time : 17178.9 secs   av.it.:  11.2
      thresh= 1.205E-06 alpha_mix =  0.300 |ddv_scf|^2 =  1.745E-11

     Pert. #  1: Fermi energy shift (Ry) =    -6.8560E-03     2.0680E-25

      iter #   6 total cpu time : 17276.7 secs   av.it.:  11.7
      thresh= 4.178E-07 alpha_mix =  0.300 |ddv_scf|^2 =  8.231E-13

     Pert. #  1: Fermi energy shift (Ry) =    -6.8600E-03     2.0680E-25

      iter #   7 total cpu time : 17367.4 secs   av.it.:  10.7
      thresh= 9.073E-08 alpha_mix =  0.300 |ddv_scf|^2 =  2.467E-13

     Pert. #  1: Fermi energy shift (Ry) =    -6.8650E-03     2.0680E-25

      iter #   8 total cpu time : 17463.9 secs   av.it.:  11.5
      thresh= 4.967E-08 alpha_mix =  0.300 |ddv_scf|^2 =  1.668E-14

     Pert. #  1: Fermi energy shift (Ry) =    -6.8641E-03     2.0680E-25

      iter #   9 total cpu time : 17556.5 secs   av.it.:  11.0
      thresh= 1.292E-08 alpha_mix =  0.300 |ddv_scf|^2 =  3.678E-15

     End of self-consistent calculation

     Convergence has been achieved 


     Representation #  22 mode #  22

     Self-consistent Calculation

     Pert. #  1: Fermi energy shift (Ry) =     6.1080E-03     3.3881E-21

      iter #   1 total cpu time : 17616.0 secs   av.it.:   4.0
      thresh= 1.000E-02 alpha_mix =  0.300 |ddv_scf|^2 =  2.356E-08

     Pert. #  1: Fermi energy shift (Ry) =     5.0718E-03    -6.6174E-24

      iter #   2 total cpu time : 17707.1 secs   av.it.:  10.8
      thresh= 1.535E-05 alpha_mix =  0.300 |ddv_scf|^2 =  4.544E-09

     Pert. #  1: Fermi energy shift (Ry) =     4.3019E-03     4.1359E-25

      iter #   3 total cpu time : 17797.2 secs   av.it.:  10.6
      thresh= 6.741E-06 alpha_mix =  0.300 |ddv_scf|^2 =  9.261E-10

     Pert. #  1: Fermi energy shift (Ry) =     3.7731E-03     3.3087E-24

      iter #   4 total cpu time : 17893.8 secs   av.it.:  11.6
      thresh= 3.043E-06 alpha_mix =  0.300 |ddv_scf|^2 =  4.400E-11

     Pert. #  1: Fermi energy shift (Ry) =     3.7921E-03    -4.1359E-25

      iter #   5 total cpu time : 17986.2 secs   av.it.:  11.0
      thresh= 6.633E-07 alpha_mix =  0.300 |ddv_scf|^2 =  1.514E-11

     Pert. #  1: Fermi energy shift (Ry) =     3.9078E-03    -2.0680E-25

      iter #   6 total cpu time : 18085.0 secs   av.it.:  11.8
      thresh= 3.892E-07 alpha_mix =  0.300 |ddv_scf|^2 =  7.797E-13

     Pert. #  1: Fermi energy shift (Ry) =     3.9240E-03    -4.1359E-25

      iter #   7 total cpu time : 18173.8 secs   av.it.:  10.4
      thresh= 8.830E-08 alpha_mix =  0.300 |ddv_scf|^2 =  2.808E-13

     Pert. #  1: Fermi energy shift (Ry) =     3.9424E-03    -4.1359E-25

      iter #   8 total cpu time : 18270.0 secs   av.it.:  11.5
      thresh= 5.299E-08 alpha_mix =  0.300 |ddv_scf|^2 =  1.726E-14

     Pert. #  1: Fermi energy shift (Ry) =     3.9432E-03    -4.1359E-25

      iter #   9 total cpu time : 18362.7 secs   av.it.:  11.0
      thresh= 1.314E-08 alpha_mix =  0.300 |ddv_scf|^2 =  3.452E-15

     End of self-consistent calculation

     Convergence has been achieved 


     Representation #  23 mode #  23

     Self-consistent Calculation

     Pert. #  1: Fermi energy shift (Ry) =     2.7913E-04     4.2352E-22

      iter #   1 total cpu time : 18421.3 secs   av.it.:   3.8
      thresh= 1.000E-02 alpha_mix =  0.300 |ddv_scf|^2 =  1.550E-08

     Pert. #  1: Fermi energy shift (Ry) =     2.5545E-03     8.2718E-25

      iter #   2 total cpu time : 18512.3 secs   av.it.:  10.8
      thresh= 1.245E-05 alpha_mix =  0.300 |ddv_scf|^2 =  3.138E-09

     Pert. #  1: Fermi energy shift (Ry) =     3.3025E-03     4.1359E-25

      iter #   3 total cpu time : 18603.0 secs   av.it.:  10.7
      thresh= 5.602E-06 alpha_mix =  0.300 |ddv_scf|^2 =  7.391E-10

     Pert. #  1: Fermi energy shift (Ry) =     4.0740E-03     2.0680E-25

      iter #   4 total cpu time : 18698.8 secs   av.it.:  11.4
      thresh= 2.719E-06 alpha_mix =  0.300 |ddv_scf|^2 =  3.774E-11

     Pert. #  1: Fermi energy shift (Ry) =     3.9977E-03     1.0340E-25

      iter #   5 total cpu time : 18793.2 secs   av.it.:  11.2
      thresh= 6.143E-07 alpha_mix =  0.300 |ddv_scf|^2 =  9.881E-12

     Pert. #  1: Fermi energy shift (Ry) =     3.9782E-03     1.0340E-25

      iter #   6 total cpu time : 18888.6 secs   av.it.:  11.3
      thresh= 3.143E-07 alpha_mix =  0.300 |ddv_scf|^2 =  8.972E-13

     Pert. #  1: Fermi energy shift (Ry) =     3.9754E-03     1.0340E-25

      iter #   7 total cpu time : 18977.9 secs   av.it.:  10.4
      thresh= 9.472E-08 alpha_mix =  0.300 |ddv_scf|^2 =  3.109E-13

     Pert. #  1: Fermi energy shift (Ry) =     3.9687E-03     1.0340E-25

      iter #   8 total cpu time : 19073.7 secs   av.it.:  11.4
      thresh= 5.576E-08 alpha_mix =  0.300 |ddv_scf|^2 =  2.452E-14

     Pert. #  1: Fermi energy shift (Ry) =     3.9690E-03     1.0340E-25

      iter #   9 total cpu time : 19168.5 secs   av.it.:  11.2
      thresh= 1.566E-08 alpha_mix =  0.300 |ddv_scf|^2 =  3.856E-15

     End of self-consistent calculation

     Convergence has been achieved 


     Representation #  24 mode #  24

     Self-consistent Calculation

     Pert. #  1: Fermi energy shift (Ry) =     8.1122E-03     2.1176E-22

      iter #   1 total cpu time : 19228.9 secs   av.it.:   4.0
      thresh= 1.000E-02 alpha_mix =  0.300 |ddv_scf|^2 =  2.494E-07

     Pert. #  1: Fermi energy shift (Ry) =     6.0375E-03     6.6174E-24

      iter #   2 total cpu time : 19317.7 secs   av.it.:  10.3
      thresh= 4.994E-05 alpha_mix =  0.300 |ddv_scf|^2 =  4.250E-08

     Pert. #  1: Fermi energy shift (Ry) =     6.8789E-03    -3.3087E-24

      iter #   3 total cpu time : 19404.5 secs   av.it.:  10.0
      thresh= 2.061E-05 alpha_mix =  0.300 |ddv_scf|^2 =  8.519E-10

     Pert. #  1: Fermi energy shift (Ry) =     6.7976E-03    -8.2718E-25

      iter #   4 total cpu time : 19500.6 secs   av.it.:  11.4
      thresh= 2.919E-06 alpha_mix =  0.300 |ddv_scf|^2 =  1.452E-10

     Pert. #  1: Fermi energy shift (Ry) =     6.8730E-03    -2.0680E-25

      iter #   5 total cpu time : 19595.1 secs   av.it.:  11.2
      thresh= 1.205E-06 alpha_mix =  0.300 |ddv_scf|^2 =  1.745E-11

     Pert. #  1: Fermi energy shift (Ry) =     6.8559E-03    -2.0680E-25

      iter #   6 total cpu time : 19693.8 secs   av.it.:  11.7
      thresh= 4.178E-07 alpha_mix =  0.300 |ddv_scf|^2 =  8.231E-13

     Pert. #  1: Fermi energy shift (Ry) =     6.8599E-03    -2.0680E-25

      iter #   7 total cpu time : 19784.9 secs   av.it.:  10.7
      thresh= 9.073E-08 alpha_mix =  0.300 |ddv_scf|^2 =  2.467E-13

     Pert. #  1: Fermi energy shift (Ry) =     6.8650E-03    -2.0680E-25

      iter #   8 total cpu time : 19881.6 secs   av.it.:  11.5
      thresh= 4.967E-08 alpha_mix =  0.300 |ddv_scf|^2 =  1.668E-14

     Pert. #  1: Fermi energy shift (Ry) =     6.8640E-03    -2.0680E-25

      iter #   9 total cpu time : 19974.9 secs   av.it.:  11.0
      thresh= 1.292E-08 alpha_mix =  0.300 |ddv_scf|^2 =  3.678E-15

     End of self-consistent calculation

     Convergence has been achieved 


     Representation #  25 mode #  25

     Self-consistent Calculation

     Pert. #  1: Fermi energy shift (Ry) =    -2.5145E-03     8.4703E-22

      iter #   1 total cpu time : 20035.0 secs   av.it.:   4.0
      thresh= 1.000E-02 alpha_mix =  0.300 |ddv_scf|^2 =  2.516E-08

     Pert. #  1: Fermi energy shift (Ry) =    -1.5793E-03    -6.6174E-24

      iter #   2 total cpu time : 20126.3 secs   av.it.:  10.8
      thresh= 1.586E-05 alpha_mix =  0.300 |ddv_scf|^2 =  5.764E-09

     Pert. #  1: Fermi energy shift (Ry) =    -2.2596E-03     1.6544E-24

      iter #   3 total cpu time : 20215.6 secs   av.it.:  10.5
      thresh= 7.592E-06 alpha_mix =  0.300 |ddv_scf|^2 =  1.088E-09

     Pert. #  1: Fermi energy shift (Ry) =    -2.3323E-03     3.3087E-24

      iter #   4 total cpu time : 20312.4 secs   av.it.:  11.6
      thresh= 3.298E-06 alpha_mix =  0.300 |ddv_scf|^2 =  4.559E-11

     Pert. #  1: Fermi energy shift (Ry) =    -2.3531E-03    -1.2925E-26

      iter #   5 total cpu time : 20404.5 secs   av.it.:  10.9
      thresh= 6.752E-07 alpha_mix =  0.300 |ddv_scf|^2 =  1.539E-11

     Pert. #  1: Fermi energy shift (Ry) =    -2.3546E-03     1.0340E-25

      iter #   6 total cpu time : 20502.7 secs   av.it.:  11.8
      thresh= 3.923E-07 alpha_mix =  0.300 |ddv_scf|^2 =  6.827E-13

     Pert. #  1: Fermi energy shift (Ry) =    -2.3597E-03    -1.0340E-25

      iter #   7 total cpu time : 20591.6 secs   av.it.:  10.5
      thresh= 8.262E-08 alpha_mix =  0.300 |ddv_scf|^2 =  2.471E-13

     Pert. #  1: Fermi energy shift (Ry) =    -2.3638E-03    -1.0340E-25

      iter #   8 total cpu time : 20689.0 secs   av.it.:  11.6
      thresh= 4.971E-08 alpha_mix =  0.300 |ddv_scf|^2 =  9.745E-15

     End of self-consistent calculation

     Convergence has been achieved 


     Representation #  26 mode #  26

     Self-consistent Calculation

     Pert. #  1: Fermi energy shift (Ry) =    -1.4400E-03    -1.0588E-22

      iter #   1 total cpu time : 20749.0 secs   av.it.:   4.0
      thresh= 1.000E-02 alpha_mix =  0.300 |ddv_scf|^2 =  1.643E-08

     Pert. #  1: Fermi energy shift (Ry) =    -9.1463E-04    -6.6174E-24

      iter #   2 total cpu time : 20841.3 secs   av.it.:  10.8
      thresh= 1.282E-05 alpha_mix =  0.300 |ddv_scf|^2 =  3.718E-09

     Pert. #  1: Fermi energy shift (Ry) =    -1.3976E-03    -8.2718E-25

      iter #   3 total cpu time : 20933.6 secs   av.it.:  10.8
      thresh= 6.097E-06 alpha_mix =  0.300 |ddv_scf|^2 =  9.197E-10

     Pert. #  1: Fermi energy shift (Ry) =    -1.3461E-03     4.1359E-25

      iter #   4 total cpu time : 21031.0 secs   av.it.:  11.4
      thresh= 3.033E-06 alpha_mix =  0.300 |ddv_scf|^2 =  4.007E-11

     Pert. #  1: Fermi energy shift (Ry) =    -1.3618E-03    -1.0340E-25

      iter #   5 total cpu time : 21125.4 secs   av.it.:  11.2
      thresh= 6.330E-07 alpha_mix =  0.300 |ddv_scf|^2 =  1.064E-11

     Pert. #  1: Fermi energy shift (Ry) =    -1.3594E-03    -2.0680E-25

      iter #   6 total cpu time : 21223.4 secs   av.it.:  11.7
      thresh= 3.263E-07 alpha_mix =  0.300 |ddv_scf|^2 =  6.980E-13

     Pert. #  1: Fermi energy shift (Ry) =    -1.3623E-03    -2.0680E-25

      iter #   7 total cpu time : 21311.8 secs   av.it.:  10.4
      thresh= 8.355E-08 alpha_mix =  0.300 |ddv_scf|^2 =  2.531E-13

     Pert. #  1: Fermi energy shift (Ry) =    -1.3647E-03    -2.0680E-25

      iter #   8 total cpu time : 21408.4 secs   av.it.:  11.5
      thresh= 5.031E-08 alpha_mix =  0.300 |ddv_scf|^2 =  1.010E-14

     Pert. #  1: Fermi energy shift (Ry) =    -1.3634E-03    -2.0680E-25

      iter #   9 total cpu time : 21499.8 secs   av.it.:  10.8
      thresh= 1.005E-08 alpha_mix =  0.300 |ddv_scf|^2 =  3.208E-15

     End of self-consistent calculation

     Convergence has been achieved 


     Representation #  27 mode #  27

     Self-consistent Calculation

     Pert. #  1: Fermi energy shift (Ry) =     1.5023E-02     1.6941E-21

      iter #   1 total cpu time : 21559.8 secs   av.it.:   4.0
      thresh= 1.000E-02 alpha_mix =  0.300 |ddv_scf|^2 =  2.713E-07

     Pert. #  1: Fermi energy shift (Ry) =     9.1632E-03    -1.6544E-24

      iter #   2 total cpu time : 21648.5 secs   av.it.:  10.4
      thresh= 5.208E-05 alpha_mix =  0.300 |ddv_scf|^2 =  6.362E-08

     Pert. #  1: Fermi energy shift (Ry) =     1.1141E-02    -8.2718E-25

      iter #   3 total cpu time : 21733.9 secs   av.it.:   9.9
      thresh= 2.522E-05 alpha_mix =  0.300 |ddv_scf|^2 =  8.744E-10

     Pert. #  1: Fermi energy shift (Ry) =     1.0778E-02    -1.0340E-25

      iter #   4 total cpu time : 21827.4 secs   av.it.:  11.1
      thresh= 2.957E-06 alpha_mix =  0.300 |ddv_scf|^2 =  1.575E-10

     Pert. #  1: Fermi energy shift (Ry) =     1.0559E-02    -1.0340E-25

      iter #   5 total cpu time : 21920.5 secs   av.it.:  11.0
      thresh= 1.255E-06 alpha_mix =  0.300 |ddv_scf|^2 =  1.706E-11

     Pert. #  1: Fermi energy shift (Ry) =     1.0248E-02     1.6156E-27

      iter #   6 total cpu time : 22017.1 secs   av.it.:  11.5
      thresh= 4.130E-07 alpha_mix =  0.300 |ddv_scf|^2 =  9.017E-13

     Pert. #  1: Fermi energy shift (Ry) =     1.0211E-02    -2.5849E-26

      iter #   7 total cpu time : 22108.5 secs   av.it.:  10.8
      thresh= 9.496E-08 alpha_mix =  0.300 |ddv_scf|^2 =  2.456E-13

     Pert. #  1: Fermi energy shift (Ry) =     1.0202E-02    -2.5849E-26

      iter #   8 total cpu time : 22204.1 secs   av.it.:  11.3
      thresh= 4.956E-08 alpha_mix =  0.300 |ddv_scf|^2 =  2.026E-14

     Pert. #  1: Fermi energy shift (Ry) =     1.0198E-02    -1.2925E-26

      iter #   9 total cpu time : 22296.3 secs   av.it.:  10.9
      thresh= 1.423E-08 alpha_mix =  0.300 |ddv_scf|^2 =  4.458E-15

     End of self-consistent calculation

     Convergence has been achieved 


     Representation #  28 mode #  28

     Self-consistent Calculation

     Pert. #  1: Fermi energy shift (Ry) =    -3.9671E-03     1.6941E-21

      iter #   1 total cpu time : 22354.2 secs   av.it.:   3.8
      thresh= 1.000E-02 alpha_mix =  0.300 |ddv_scf|^2 =  2.240E-08

     Pert. #  1: Fermi energy shift (Ry) =    -3.5066E-03     3.3087E-24

      iter #   2 total cpu time : 22445.1 secs   av.it.:  10.7
      thresh= 1.497E-05 alpha_mix =  0.300 |ddv_scf|^2 =  4.590E-09

     Pert. #  1: Fermi energy shift (Ry) =    -3.8510E-03     8.2718E-25

      iter #   3 total cpu time : 22534.5 secs   av.it.:  10.5
      thresh= 6.775E-06 alpha_mix =  0.300 |ddv_scf|^2 =  9.401E-10

     Pert. #  1: Fermi energy shift (Ry) =    -3.6931E-03    -1.6544E-24

      iter #   4 total cpu time : 22630.6 secs   av.it.:  11.4
      thresh= 3.066E-06 alpha_mix =  0.300 |ddv_scf|^2 =  4.850E-11

     Pert. #  1: Fermi energy shift (Ry) =    -3.6256E-03     4.1359E-25

      iter #   5 total cpu time : 22721.7 secs   av.it.:  10.7
      thresh= 6.964E-07 alpha_mix =  0.300 |ddv_scf|^2 =  1.619E-11

     Pert. #  1: Fermi energy shift (Ry) =    -3.4553E-03     4.1359E-25

      iter #   6 total cpu time : 22819.8 secs   av.it.:  11.7
      thresh= 4.024E-07 alpha_mix =  0.300 |ddv_scf|^2 =  7.974E-13

     Pert. #  1: Fermi energy shift (Ry) =    -3.4460E-03     4.1359E-25

      iter #   7 total cpu time : 22908.9 secs   av.it.:  10.5
      thresh= 8.930E-08 alpha_mix =  0.300 |ddv_scf|^2 =  2.865E-13

     Pert. #  1: Fermi energy shift (Ry) =    -3.4396E-03     4.1359E-25

      iter #   8 total cpu time : 23007.3 secs   av.it.:  11.7
      thresh= 5.352E-08 alpha_mix =  0.300 |ddv_scf|^2 =  8.314E-15

     End of self-consistent calculation

     Convergence has been achieved 


     Representation #  29 mode #  29

     Self-consistent Calculation

     Pert. #  1: Fermi energy shift (Ry) =    -2.2685E-03    -3.3881E-21

      iter #   1 total cpu time : 23066.1 secs   av.it.:   4.0
      thresh= 1.000E-02 alpha_mix =  0.300 |ddv_scf|^2 =  1.535E-08

     Pert. #  1: Fermi energy shift (Ry) =    -2.0229E-03     3.3087E-24

      iter #   2 total cpu time : 23157.4 secs   av.it.:  10.8
      thresh= 1.239E-05 alpha_mix =  0.300 |ddv_scf|^2 =  3.376E-09

     Pert. #  1: Fermi energy shift (Ry) =    -2.2723E-03     1.6544E-24

      iter #   3 total cpu time : 23249.5 secs   av.it.:  10.9
      thresh= 5.811E-06 alpha_mix =  0.300 |ddv_scf|^2 =  8.091E-10

     Pert. #  1: Fermi energy shift (Ry) =    -2.1309E-03    -4.1359E-25

      iter #   4 total cpu time : 23345.2 secs   av.it.:  11.4
      thresh= 2.844E-06 alpha_mix =  0.300 |ddv_scf|^2 =  4.076E-11

     Pert. #  1: Fermi energy shift (Ry) =    -2.0800E-03     5.1699E-26

      iter #   5 total cpu time : 23438.6 secs   av.it.:  11.1
      thresh= 6.384E-07 alpha_mix =  0.300 |ddv_scf|^2 =  1.216E-11

     Pert. #  1: Fermi energy shift (Ry) =    -1.9944E-03     5.1699E-26

      iter #   6 total cpu time : 23536.3 secs   av.it.:  11.7
      thresh= 3.488E-07 alpha_mix =  0.300 |ddv_scf|^2 =  7.980E-13

     Pert. #  1: Fermi energy shift (Ry) =    -1.9899E-03     2.5849E-26

      iter #   7 total cpu time : 23625.1 secs   av.it.:  10.6
      thresh= 8.933E-08 alpha_mix =  0.300 |ddv_scf|^2 =  2.862E-13

     Pert. #  1: Fermi energy shift (Ry) =    -1.9864E-03     5.1699E-26

      iter #   8 total cpu time : 23722.9 secs   av.it.:  11.7
      thresh= 5.349E-08 alpha_mix =  0.300 |ddv_scf|^2 =  8.586E-15

     End of self-consistent calculation

     Convergence has been achieved 


     Representation #  30 mode #  30

     Self-consistent Calculation

     Pert. #  1: Fermi energy shift (Ry) =    -3.5103E-03     6.7763E-21

      iter #   1 total cpu time : 23783.7 secs   av.it.:   4.1
      thresh= 1.000E-02 alpha_mix =  0.300 |ddv_scf|^2 =  2.706E-07

     Pert. #  1: Fermi energy shift (Ry) =    -6.0515E-03     6.6174E-24

      iter #   2 total cpu time : 23873.2 secs   av.it.:  10.4
      thresh= 5.202E-05 alpha_mix =  0.300 |ddv_scf|^2 =  4.793E-08

     Pert. #  1: Fermi energy shift (Ry) =    -4.7864E-03    -6.6174E-24

      iter #   3 total cpu time : 23960.3 secs   av.it.:  10.0
      thresh= 2.189E-05 alpha_mix =  0.300 |ddv_scf|^2 =  9.533E-10

     Pert. #  1: Fermi energy shift (Ry) =    -4.6363E-03    -2.0680E-25

      iter #   4 total cpu time : 24056.0 secs   av.it.:  11.3
      thresh= 3.088E-06 alpha_mix =  0.300 |ddv_scf|^2 =  1.870E-10

     Pert. #  1: Fermi energy shift (Ry) =    -4.4143E-03    -2.5849E-26

      iter #   5 total cpu time : 24151.3 secs   av.it.:  11.3
      thresh= 1.368E-06 alpha_mix =  0.300 |ddv_scf|^2 =  1.782E-11

     Pert. #  1: Fermi energy shift (Ry) =    -4.3288E-03    -1.2925E-26

      iter #   6 total cpu time : 24250.7 secs   av.it.:  11.9
      thresh= 4.221E-07 alpha_mix =  0.300 |ddv_scf|^2 =  8.628E-13

     Pert. #  1: Fermi energy shift (Ry) =    -4.3151E-03     1.0340E-25

      iter #   7 total cpu time : 24342.9 secs   av.it.:  10.9
      thresh= 9.289E-08 alpha_mix =  0.300 |ddv_scf|^2 =  2.579E-13

     Pert. #  1: Fermi energy shift (Ry) =    -4.3071E-03     1.0340E-25

      iter #   8 total cpu time : 24439.4 secs   av.it.:  11.5
      thresh= 5.079E-08 alpha_mix =  0.300 |ddv_scf|^2 =  1.600E-14

     Pert. #  1: Fermi energy shift (Ry) =    -4.3076E-03     1.0340E-25

      iter #   9 total cpu time : 24532.4 secs   av.it.:  10.9
      thresh= 1.265E-08 alpha_mix =  0.300 |ddv_scf|^2 =  4.201E-15

     End of self-consistent calculation

     Convergence has been achieved 


     Representation #  31 mode #  31

     Self-consistent Calculation

     Pert. #  1: Fermi energy shift (Ry) =     3.2854E-03     6.7763E-21

      iter #   1 total cpu time : 24591.4 secs   av.it.:   3.9
      thresh= 1.000E-02 alpha_mix =  0.300 |ddv_scf|^2 =  2.476E-08

     Pert. #  1: Fermi energy shift (Ry) =     4.7596E-03    -1.6544E-24

      iter #   2 total cpu time : 24682.6 secs   av.it.:  10.7
      thresh= 1.574E-05 alpha_mix =  0.300 |ddv_scf|^2 =  4.575E-09

     Pert. #  1: Fermi energy shift (Ry) =     4.9056E-03    -4.1359E-25

      iter #   3 total cpu time : 24774.3 secs   av.it.:  10.5
      thresh= 6.764E-06 alpha_mix =  0.300 |ddv_scf|^2 =  9.219E-10

     Pert. #  1: Fermi energy shift (Ry) =     5.4030E-03     8.2718E-25

      iter #   4 total cpu time : 24872.5 secs   av.it.:  11.5
      thresh= 3.036E-06 alpha_mix =  0.300 |ddv_scf|^2 =  4.369E-11

     Pert. #  1: Fermi energy shift (Ry) =     5.3807E-03     4.1359E-25

      iter #   5 total cpu time : 24965.6 secs   av.it.:  10.9
      thresh= 6.610E-07 alpha_mix =  0.300 |ddv_scf|^2 =  1.519E-11

     Pert. #  1: Fermi energy shift (Ry) =     5.4017E-03     4.1359E-25

      iter #   6 total cpu time : 25063.7 secs   av.it.:  11.7
      thresh= 3.897E-07 alpha_mix =  0.300 |ddv_scf|^2 =  9.052E-13

     Pert. #  1: Fermi energy shift (Ry) =     5.4072E-03     4.1359E-25

      iter #   7 total cpu time : 25153.5 secs   av.it.:  10.5
      thresh= 9.514E-08 alpha_mix =  0.300 |ddv_scf|^2 =  3.084E-13

     Pert. #  1: Fermi energy shift (Ry) =     5.4106E-03     4.1359E-25

      iter #   8 total cpu time : 25249.9 secs   av.it.:  11.3
      thresh= 5.554E-08 alpha_mix =  0.300 |ddv_scf|^2 =  3.052E-14

     Pert. #  1: Fermi energy shift (Ry) =     5.4112E-03     4.1359E-25

      iter #   9 total cpu time : 25345.4 secs   av.it.:  11.3
      thresh= 1.747E-08 alpha_mix =  0.300 |ddv_scf|^2 =  3.799E-15

     End of self-consistent calculation

     Convergence has been achieved 


     Representation #  32 mode #  32

     Self-consistent Calculation

     Pert. #  1: Fermi energy shift (Ry) =     5.1780E-03     6.7763E-21

      iter #   1 total cpu time : 25404.2 secs   av.it.:   3.8
      thresh= 1.000E-02 alpha_mix =  0.300 |ddv_scf|^2 =  1.427E-08

     Pert. #  1: Fermi energy shift (Ry) =     3.1214E-03    -3.3087E-24

      iter #   2 total cpu time : 25495.7 secs   av.it.:  10.8
      thresh= 1.194E-05 alpha_mix =  0.300 |ddv_scf|^2 =  3.093E-09

     Pert. #  1: Fermi energy shift (Ry) =     1.9285E-03    -8.2718E-25

      iter #   3 total cpu time : 25587.9 secs   av.it.:  10.8
      thresh= 5.561E-06 alpha_mix =  0.300 |ddv_scf|^2 =  7.401E-10

     Pert. #  1: Fermi energy shift (Ry) =     1.2179E-03     4.1359E-25

      iter #   4 total cpu time : 25683.8 secs   av.it.:  11.4
      thresh= 2.720E-06 alpha_mix =  0.300 |ddv_scf|^2 =  3.753E-11

     Pert. #  1: Fermi energy shift (Ry) =     1.2919E-03     2.5849E-26

      iter #   5 total cpu time : 25778.0 secs   av.it.:  11.2
      thresh= 6.126E-07 alpha_mix =  0.300 |ddv_scf|^2 =  1.041E-11

     Pert. #  1: Fermi energy shift (Ry) =     1.4038E-03    -5.1699E-26

      iter #   6 total cpu time : 25875.1 secs   av.it.:  11.6
      thresh= 3.226E-07 alpha_mix =  0.300 |ddv_scf|^2 =  7.623E-13

     Pert. #  1: Fermi energy shift (Ry) =     1.4171E-03     5.1699E-26

      iter #   7 total cpu time : 25963.7 secs   av.it.:  10.3
      thresh= 8.731E-08 alpha_mix =  0.300 |ddv_scf|^2 =  2.814E-13

     Pert. #  1: Fermi energy shift (Ry) =     1.4355E-03     1.2925E-26

      iter #   8 total cpu time : 26061.5 secs   av.it.:  11.6
      thresh= 5.305E-08 alpha_mix =  0.300 |ddv_scf|^2 =  9.512E-15

     End of self-consistent calculation

     Convergence has been achieved 


     Representation #  33 mode #  33

     Self-consistent Calculation

     Pert. #  1: Fermi energy shift (Ry) =     8.1146E-03    -1.6941E-21

      iter #   1 total cpu time : 26122.0 secs   av.it.:   4.0
      thresh= 1.000E-02 alpha_mix =  0.300 |ddv_scf|^2 =  2.494E-07

     Pert. #  1: Fermi energy shift (Ry) =     6.0382E-03     6.6174E-24

      iter #   2 total cpu time : 26210.3 secs   av.it.:  10.3
      thresh= 4.994E-05 alpha_mix =  0.300 |ddv_scf|^2 =  4.250E-08

     Pert. #  1: Fermi energy shift (Ry) =     6.8792E-03    -1.6544E-24

      iter #   3 total cpu time : 26296.8 secs   av.it.:  10.0
      thresh= 2.061E-05 alpha_mix =  0.300 |ddv_scf|^2 =  8.519E-10

     Pert. #  1: Fermi energy shift (Ry) =     6.7969E-03    -4.1359E-25

      iter #   4 total cpu time : 26392.3 secs   av.it.:  11.4
      thresh= 2.919E-06 alpha_mix =  0.300 |ddv_scf|^2 =  1.452E-10

     Pert. #  1: Fermi energy shift (Ry) =     6.8721E-03     4.1359E-25

      iter #   5 total cpu time : 26487.0 secs   av.it.:  11.2
      thresh= 1.205E-06 alpha_mix =  0.300 |ddv_scf|^2 =  1.745E-11

     Pert. #  1: Fermi energy shift (Ry) =     6.8549E-03     2.0680E-25

      iter #   6 total cpu time : 26586.2 secs   av.it.:  11.7
      thresh= 4.178E-07 alpha_mix =  0.300 |ddv_scf|^2 =  8.231E-13

     Pert. #  1: Fermi energy shift (Ry) =     6.8589E-03     2.0680E-25

      iter #   7 total cpu time : 26677.0 secs   av.it.:  10.7
      thresh= 9.072E-08 alpha_mix =  0.300 |ddv_scf|^2 =  2.467E-13

     Pert. #  1: Fermi energy shift (Ry) =     6.8639E-03     2.0680E-25

      iter #   8 total cpu time : 26773.5 secs   av.it.:  11.5
      thresh= 4.967E-08 alpha_mix =  0.300 |ddv_scf|^2 =  1.668E-14

     Pert. #  1: Fermi energy shift (Ry) =     6.8629E-03     2.0680E-25

      iter #   9 total cpu time : 26866.3 secs   av.it.:  11.0
      thresh= 1.292E-08 alpha_mix =  0.300 |ddv_scf|^2 =  3.678E-15

     End of self-consistent calculation

     Convergence has been achieved 


     Representation #  34 mode #  34

     Self-consistent Calculation

     Pert. #  1: Fermi energy shift (Ry) =     2.5128E-03     4.2352E-22

      iter #   1 total cpu time : 26925.9 secs   av.it.:   4.0
      thresh= 1.000E-02 alpha_mix =  0.300 |ddv_scf|^2 =  2.516E-08

     Pert. #  1: Fermi energy shift (Ry) =     1.5780E-03    -6.6174E-24

      iter #   2 total cpu time : 27016.9 secs   av.it.:  10.8
      thresh= 1.586E-05 alpha_mix =  0.300 |ddv_scf|^2 =  5.764E-09

     Pert. #  1: Fermi energy shift (Ry) =     2.2585E-03     1.6544E-24

      iter #   3 total cpu time : 27106.4 secs   av.it.:  10.5
      thresh= 7.592E-06 alpha_mix =  0.300 |ddv_scf|^2 =  1.088E-09

     Pert. #  1: Fermi energy shift (Ry) =     2.3314E-03     3.3087E-24

      iter #   4 total cpu time : 27202.9 secs   av.it.:  11.6
      thresh= 3.298E-06 alpha_mix =  0.300 |ddv_scf|^2 =  4.559E-11

     Pert. #  1: Fermi energy shift (Ry) =     2.3523E-03    -5.1699E-26

      iter #   5 total cpu time : 27294.7 secs   av.it.:  10.9
      thresh= 6.752E-07 alpha_mix =  0.300 |ddv_scf|^2 =  1.539E-11

     Pert. #  1: Fermi energy shift (Ry) =     2.3538E-03     5.1699E-26

      iter #   6 total cpu time : 27393.1 secs   av.it.:  11.8
      thresh= 3.923E-07 alpha_mix =  0.300 |ddv_scf|^2 =  6.827E-13

     Pert. #  1: Fermi energy shift (Ry) =     2.3590E-03    -2.0680E-25

      iter #   7 total cpu time : 27482.0 secs   av.it.:  10.5
      thresh= 8.262E-08 alpha_mix =  0.300 |ddv_scf|^2 =  2.471E-13

     Pert. #  1: Fermi energy shift (Ry) =     2.3630E-03    -1.0340E-25

      iter #   8 total cpu time : 27579.0 secs   av.it.:  11.6
      thresh= 4.971E-08 alpha_mix =  0.300 |ddv_scf|^2 =  9.745E-15

     End of self-consistent calculation

     Convergence has been achieved 


     Representation #  35 mode #  35

     Self-consistent Calculation

     Pert. #  1: Fermi energy shift (Ry) =     1.4434E-03    -1.0588E-22

      iter #   1 total cpu time : 27638.4 secs   av.it.:   4.0
      thresh= 1.000E-02 alpha_mix =  0.300 |ddv_scf|^2 =  1.643E-08

     Pert. #  1: Fermi energy shift (Ry) =     9.1684E-04    -6.6174E-24

      iter #   2 total cpu time : 27729.4 secs   av.it.:  10.8
      thresh= 1.282E-05 alpha_mix =  0.300 |ddv_scf|^2 =  3.718E-09

     Pert. #  1: Fermi energy shift (Ry) =     1.3994E-03    -8.2718E-25

      iter #   3 total cpu time : 27821.1 secs   av.it.:  10.8
      thresh= 6.097E-06 alpha_mix =  0.300 |ddv_scf|^2 =  9.197E-10

     Pert. #  1: Fermi energy shift (Ry) =     1.3476E-03     4.1359E-25

      iter #   4 total cpu time : 27919.0 secs   av.it.:  11.4
      thresh= 3.033E-06 alpha_mix =  0.300 |ddv_scf|^2 =  4.007E-11

     Pert. #  1: Fermi energy shift (Ry) =     1.3632E-03    -1.0340E-25

      iter #   5 total cpu time : 28014.3 secs   av.it.:  11.2
      thresh= 6.330E-07 alpha_mix =  0.300 |ddv_scf|^2 =  1.064E-11

     Pert. #  1: Fermi energy shift (Ry) =     1.3608E-03    -2.0680E-25

      iter #   6 total cpu time : 28111.5 secs   av.it.:  11.7
      thresh= 3.262E-07 alpha_mix =  0.300 |ddv_scf|^2 =  6.980E-13

     Pert. #  1: Fermi energy shift (Ry) =     1.3637E-03    -2.0680E-25

      iter #   7 total cpu time : 28200.2 secs   av.it.:  10.4
      thresh= 8.355E-08 alpha_mix =  0.300 |ddv_scf|^2 =  2.531E-13

     Pert. #  1: Fermi energy shift (Ry) =     1.3661E-03    -2.0680E-25

      iter #   8 total cpu time : 28296.4 secs   av.it.:  11.5
      thresh= 5.030E-08 alpha_mix =  0.300 |ddv_scf|^2 =  1.011E-14

     Pert. #  1: Fermi energy shift (Ry) =     1.3647E-03    -2.0680E-25

      iter #   9 total cpu time : 28387.7 secs   av.it.:  10.8
      thresh= 1.005E-08 alpha_mix =  0.300 |ddv_scf|^2 =  3.210E-15

     End of self-consistent calculation

     Convergence has been achieved 


     Representation #  36 mode #  36

     Self-consistent Calculation

[...]
      thresh= 1.000E-02 alpha_mix =  0.300 |ddv_scf|^2 =  2.547E-07

     Pert. #  1: Fermi energy shift (Ry) =    -5.4426E-03    -1.3235E-23

      iter #   2 total cpu time : 35591.1 secs   av.it.:  10.4
      thresh= 5.046E-05 alpha_mix =  0.300 |ddv_scf|^2 =  4.419E-08

     Pert. #  1: Fermi energy shift (Ry) =    -4.6022E-03     1.6544E-24

      iter #   3 total cpu time : 35677.3 secs   av.it.:  10.0
      thresh= 2.102E-05 alpha_mix =  0.300 |ddv_scf|^2 =  9.036E-10

     Pert. #  1: Fermi energy shift (Ry) =    -4.7645E-03     1.0340E-25

      iter #   4 total cpu time : 35772.4 secs   av.it.:  11.4
      thresh= 3.006E-06 alpha_mix =  0.300 |ddv_scf|^2 =  1.638E-10

     Pert. #  1: Fermi energy shift (Ry) =    -4.6442E-03     2.0680E-25

      iter #   5 total cpu time : 35866.2 secs   av.it.:  11.2
      thresh= 1.280E-06 alpha_mix =  0.300 |ddv_scf|^2 =  1.746E-11

     Pert. #  1: Fermi energy shift (Ry) =    -4.5356E-03     2.0680E-25

      iter #   6 total cpu time : 35964.2 secs   av.it.:  11.7
      thresh= 4.179E-07 alpha_mix =  0.300 |ddv_scf|^2 =  8.808E-13

     Pert. #  1: Fermi energy shift (Ry) =    -4.5385E-03     1.0340E-25

      iter #   7 total cpu time : 36055.3 secs   av.it.:  10.8
      thresh= 9.385E-08 alpha_mix =  0.300 |ddv_scf|^2 =  2.573E-13

     Pert. #  1: Fermi energy shift (Ry) =    -4.5533E-03     2.0680E-25

      iter #   8 total cpu time : 36152.3 secs   av.it.:  11.5
      thresh= 5.072E-08 alpha_mix =  0.300 |ddv_scf|^2 =  1.881E-14

     Pert. #  1: Fermi energy shift (Ry) =    -4.5548E-03     2.0680E-25

      iter #   9 total cpu time : 36245.8 secs   av.it.:  11.0
      thresh= 1.372E-08 alpha_mix =  0.300 |ddv_scf|^2 =  4.120E-15

     End of self-consistent calculation

     Convergence has been achieved 


     Representation #  46 mode #  46

     Self-consistent Calculation

     Pert. #  1: Fermi energy shift (Ry) =     3.0294E-03     3.3881E-21

      iter #   1 total cpu time : 36304.3 secs   av.it.:   3.9
      thresh= 1.000E-02 alpha_mix =  0.300 |ddv_scf|^2 =  2.556E-08

     Pert. #  1: Fermi energy shift (Ry) =     4.9933E-03     8.2718E-25

      iter #   2 total cpu time : 36394.0 secs   av.it.:  10.6
      thresh= 1.599E-05 alpha_mix =  0.300 |ddv_scf|^2 =  4.963E-09

     Pert. #  1: Fermi energy shift (Ry) =     5.2488E-03    -1.6544E-24

      iter #   3 total cpu time : 36482.5 secs   av.it.:  10.5
      thresh= 7.045E-06 alpha_mix =  0.300 |ddv_scf|^2 =  9.559E-10

     Pert. #  1: Fermi energy shift (Ry) =     5.7626E-03    -8.2718E-25

      iter #   4 total cpu time : 36577.6 secs   av.it.:  11.4
      thresh= 3.092E-06 alpha_mix =  0.300 |ddv_scf|^2 =  4.428E-11

     Pert. #  1: Fermi energy shift (Ry) =     5.6299E-03    -4.1359E-25

      iter #   5 total cpu time : 36669.4 secs   av.it.:  10.9
      thresh= 6.654E-07 alpha_mix =  0.300 |ddv_scf|^2 =  1.468E-11

     Pert. #  1: Fermi energy shift (Ry) =     5.4994E-03    -4.1359E-25

      iter #   6 total cpu time : 36766.0 secs   av.it.:  11.6
      thresh= 3.832E-07 alpha_mix =  0.300 |ddv_scf|^2 =  8.703E-13

     Pert. #  1: Fermi energy shift (Ry) =     5.4829E-03    -4.1359E-25

      iter #   7 total cpu time : 36854.7 secs   av.it.:  10.5
      thresh= 9.329E-08 alpha_mix =  0.300 |ddv_scf|^2 =  3.041E-13

     Pert. #  1: Fermi energy shift (Ry) =     5.4649E-03    -4.1359E-25

      iter #   8 total cpu time : 36952.4 secs   av.it.:  11.7
      thresh= 5.514E-08 alpha_mix =  0.300 |ddv_scf|^2 =  1.257E-14

     Pert. #  1: Fermi energy shift (Ry) =     5.4626E-03    -4.1359E-25

      iter #   9 total cpu time : 37044.4 secs   av.it.:  10.9
      thresh= 1.121E-08 alpha_mix =  0.300 |ddv_scf|^2 =  3.621E-15

     End of self-consistent calculation

     Convergence has been achieved 


     Representation #  47 mode #  47

     Self-consistent Calculation

     Pert. #  1: Fermi energy shift (Ry) =     1.7388E-03    -6.7763E-21

      iter #   1 total cpu time : 37104.2 secs   av.it.:   4.0
      thresh= 1.000E-02 alpha_mix =  0.300 |ddv_scf|^2 =  1.657E-08

     Pert. #  1: Fermi energy shift (Ry) =     2.8947E-03     3.3087E-24

      iter #   2 total cpu time : 37195.1 secs   av.it.:  10.7
      thresh= 1.287E-05 alpha_mix =  0.300 |ddv_scf|^2 =  3.505E-09

     Pert. #  1: Fermi energy shift (Ry) =     3.0696E-03     4.1359E-25

      iter #   3 total cpu time : 37286.6 secs   av.it.:  10.8
      thresh= 5.920E-06 alpha_mix =  0.300 |ddv_scf|^2 =  8.025E-10

     Pert. #  1: Fermi energy shift (Ry) =     3.3394E-03    -2.0680E-25

      iter #   4 total cpu time : 37382.9 secs   av.it.:  11.4
      thresh= 2.833E-06 alpha_mix =  0.300 |ddv_scf|^2 =  3.980E-11

     Pert. #  1: Fermi energy shift (Ry) =     3.2275E-03    -2.0680E-25

      iter #   5 total cpu time : 37478.4 secs   av.it.:  11.2
      thresh= 6.309E-07 alpha_mix =  0.300 |ddv_scf|^2 =  1.021E-11

     Pert. #  1: Fermi energy shift (Ry) =     3.1800E-03    -1.0340E-25

      iter #   6 total cpu time : 37575.7 secs   av.it.:  11.5
      thresh= 3.195E-07 alpha_mix =  0.300 |ddv_scf|^2 =  8.026E-13

     Pert. #  1: Fermi energy shift (Ry) =     3.1715E-03    -1.0340E-25

      iter #   7 total cpu time : 37664.7 secs   av.it.:  10.4
      thresh= 8.959E-08 alpha_mix =  0.300 |ddv_scf|^2 =  2.903E-13

     Pert. #  1: Fermi energy shift (Ry) =     3.1622E-03    -1.0340E-25

      iter #   8 total cpu time : 37762.3 secs   av.it.:  11.7
      thresh= 5.388E-08 alpha_mix =  0.300 |ddv_scf|^2 =  8.729E-15

     End of self-consistent calculation

     Convergence has been achieved 


     Representation #  48 mode #  48

     Self-consistent Calculation

     Pert. #  1: Fermi energy shift (Ry) =     1.2528E-03     3.3881E-21

      iter #   1 total cpu time : 37822.9 secs   av.it.:   4.0
      thresh= 1.000E-02 alpha_mix =  0.300 |ddv_scf|^2 =  2.642E-07

     Pert. #  1: Fermi energy shift (Ry) =    -1.2021E-03    -1.3235E-23

      iter #   2 total cpu time : 37910.8 secs   av.it.:  10.3
      thresh= 5.140E-05 alpha_mix =  0.300 |ddv_scf|^2 =  4.546E-08

     Pert. #  1: Fermi energy shift (Ry) =    -4.5669E-04     8.2718E-25

      iter #   3 total cpu time : 37995.4 secs   av.it.:  10.0
      thresh= 2.132E-05 alpha_mix =  0.300 |ddv_scf|^2 =  8.981E-10

     Pert. #  1: Fermi energy shift (Ry) =    -7.6844E-04    -5.1699E-26

      iter #   4 total cpu time : 38086.1 secs   av.it.:  11.4
      thresh= 2.997E-06 alpha_mix =  0.300 |ddv_scf|^2 =  1.577E-10

     Pert. #  1: Fermi energy shift (Ry) =    -7.8618E-04    -1.0340E-25

      iter #   5 total cpu time : 38175.2 secs   av.it.:  11.2
      thresh= 1.256E-06 alpha_mix =  0.300 |ddv_scf|^2 =  1.696E-11

     Pert. #  1: Fermi energy shift (Ry) =    -8.7270E-04    -1.0340E-25

      iter #   6 total cpu time : 38267.3 secs   av.it.:  11.8
      thresh= 4.118E-07 alpha_mix =  0.300 |ddv_scf|^2 =  8.481E-13

     Pert. #  1: Fermi energy shift (Ry) =    -8.8043E-04     1.2925E-26

      iter #   7 total cpu time : 38352.6 secs   av.it.:  10.7
      thresh= 9.209E-08 alpha_mix =  0.300 |ddv_scf|^2 =  2.621E-13

     Pert. #  1: Fermi energy shift (Ry) =    -8.7985E-04    -6.4623E-27

      iter #   8 total cpu time : 38443.4 secs   av.it.:  11.6
      thresh= 5.120E-08 alpha_mix =  0.300 |ddv_scf|^2 =  1.005E-14

     Pert. #  1: Fermi energy shift (Ry) =    -8.7903E-04     3.2312E-27

      iter #   9 total cpu time : 38529.1 secs   av.it.:  10.9
      thresh= 1.003E-08 alpha_mix =  0.300 |ddv_scf|^2 =  2.928E-15

     End of self-consistent calculation

     Convergence has been achieved 


     Representation #  49 mode #  49

     Self-consistent Calculation

     Pert. #  1: Fermi energy shift (Ry) =    -1.1612E-03    -4.2352E-22

      iter #   1 total cpu time : 38584.6 secs   av.it.:   4.0
      thresh= 1.000E-02 alpha_mix =  0.300 |ddv_scf|^2 =  2.320E-08

     Pert. #  1: Fermi energy shift (Ry) =    -1.4680E-03    -3.3087E-24

      iter #   2 total cpu time : 38669.5 secs   av.it.:  10.8
      thresh= 1.523E-05 alpha_mix =  0.300 |ddv_scf|^2 =  4.547E-09

     Pert. #  1: Fermi energy shift (Ry) =    -1.2051E-03     3.3087E-24

      iter #   3 total cpu time : 38753.8 secs   av.it.:  10.6
      thresh= 6.743E-06 alpha_mix =  0.300 |ddv_scf|^2 =  9.726E-10

     Pert. #  1: Fermi energy shift (Ry) =    -1.2856E-03     3.3087E-24

      iter #   4 total cpu time : 38843.7 secs   av.it.:  11.5
      thresh= 3.119E-06 alpha_mix =  0.300 |ddv_scf|^2 =  4.530E-11

     Pert. #  1: Fermi energy shift (Ry) =    -1.2918E-03     8.2718E-25

      iter #   5 total cpu time : 38929.4 secs   av.it.:  11.0
      thresh= 6.731E-07 alpha_mix =  0.300 |ddv_scf|^2 =  1.526E-11

     Pert. #  1: Fermi energy shift (Ry) =    -1.3499E-03     8.2718E-25

      iter #   6 total cpu time : 39020.8 secs   av.it.:  11.8
      thresh= 3.906E-07 alpha_mix =  0.300 |ddv_scf|^2 =  7.932E-13

     Pert. #  1: Fermi energy shift (Ry) =    -1.3443E-03     4.1359E-25

      iter #   7 total cpu time : 39102.8 secs   av.it.:  10.4
      thresh= 8.906E-08 alpha_mix =  0.300 |ddv_scf|^2 =  2.882E-13

     Pert. #  1: Fermi energy shift (Ry) =    -1.3361E-03     4.1359E-25

      iter #   8 total cpu time : 39192.1 secs   av.it.:  11.5
      thresh= 5.369E-08 alpha_mix =  0.300 |ddv_scf|^2 =  1.417E-14

     Pert. #  1: Fermi energy shift (Ry) =    -1.3358E-03     4.1359E-25

      iter #   9 total cpu time : 39276.9 secs   av.it.:  10.8
      thresh= 1.190E-08 alpha_mix =  0.300 |ddv_scf|^2 =  3.650E-15

     End of self-consistent calculation

     Convergence has been achieved 


     Representation #  50 mode #  50

     Self-consistent Calculation

     Pert. #  1: Fermi energy shift (Ry) =     8.0409E-03    -4.2352E-22

      iter #   1 total cpu time : 39331.0 secs   av.it.:   3.8
      thresh= 1.000E-02 alpha_mix =  0.300 |ddv_scf|^2 =  1.544E-08

     Pert. #  1: Fermi energy shift (Ry) =     8.4476E-03     1.6544E-24

      iter #   2 total cpu time : 39415.4 secs   av.it.:  10.8
      thresh= 1.243E-05 alpha_mix =  0.300 |ddv_scf|^2 =  3.143E-09

     Pert. #  1: Fermi energy shift (Ry) =     8.9221E-03    -1.6544E-24

      iter #   3 total cpu time : 39499.6 secs   av.it.:  10.7
      thresh= 5.606E-06 alpha_mix =  0.300 |ddv_scf|^2 =  7.254E-10

     Pert. #  1: Fermi energy shift (Ry) =     8.8700E-03    -2.0680E-25

      iter #   4 total cpu time : 39587.3 secs   av.it.:  11.2
      thresh= 2.693E-06 alpha_mix =  0.300 |ddv_scf|^2 =  4.000E-11

     Pert. #  1: Fermi energy shift (Ry) =     8.7265E-03    -2.0680E-25

      iter #   5 total cpu time : 39673.8 secs   av.it.:  11.1
      thresh= 6.324E-07 alpha_mix =  0.300 |ddv_scf|^2 =  1.138E-11

     Pert. #  1: Fermi energy shift (Ry) =     8.5584E-03    -2.0680E-25

      iter #   6 total cpu time : 39763.2 secs   av.it.:  11.5
      thresh= 3.374E-07 alpha_mix =  0.300 |ddv_scf|^2 =  8.877E-13

     Pert. #  1: Fermi energy shift (Ry) =     8.5342E-03    -1.0340E-25

      iter #   7 total cpu time : 39845.9 secs   av.it.:  10.5
      thresh= 9.422E-08 alpha_mix =  0.300 |ddv_scf|^2 =  3.012E-13

     Pert. #  1: Fermi energy shift (Ry) =     8.5089E-03    -1.0340E-25

      iter #   8 total cpu time : 39935.5 secs   av.it.:  11.5
      thresh= 5.489E-08 alpha_mix =  0.300 |ddv_scf|^2 =  2.475E-14

     Pert. #  1: Fermi energy shift (Ry) =     8.5046E-03    -1.0340E-25

      iter #   9 total cpu time : 40023.5 secs   av.it.:  11.2
      thresh= 1.573E-08 alpha_mix =  0.300 |ddv_scf|^2 =  3.883E-15

     End of self-consistent calculation

     Convergence has been achieved 


     Representation #  51 mode #  51

     Self-consistent Calculation

     Pert. #  1: Fermi energy shift (Ry) =     2.4143E-03     4.2352E-22

      iter #   1 total cpu time : 40079.8 secs   av.it.:   4.0
      thresh= 1.000E-02 alpha_mix =  0.300 |ddv_scf|^2 =  2.547E-07

     Pert. #  1: Fermi energy shift (Ry) =     5.4404E-03    -1.3235E-23

      iter #   2 total cpu time : 40161.8 secs   av.it.:  10.4
      thresh= 5.046E-05 alpha_mix =  0.300 |ddv_scf|^2 =  4.419E-08

     Pert. #  1: Fermi energy shift (Ry) =     4.5999E-03     1.6544E-24

      iter #   3 total cpu time : 40241.7 secs   av.it.:  10.0
      thresh= 2.102E-05 alpha_mix =  0.300 |ddv_scf|^2 =  9.035E-10

     Pert. #  1: Fermi energy shift (Ry) =     4.7621E-03     1.0340E-25

      iter #   4 total cpu time : 40330.9 secs   av.it.:  11.4
      thresh= 3.006E-06 alpha_mix =  0.300 |ddv_scf|^2 =  1.638E-10

     Pert. #  1: Fermi energy shift (Ry) =     4.6418E-03     2.0680E-25

      iter #   5 total cpu time : 40419.1 secs   av.it.:  11.2
      thresh= 1.280E-06 alpha_mix =  0.300 |ddv_scf|^2 =  1.746E-11

     Pert. #  1: Fermi energy shift (Ry) =     4.5334E-03     2.0680E-25

      iter #   6 total cpu time : 40511.3 secs   av.it.:  11.7
      thresh= 4.179E-07 alpha_mix =  0.300 |ddv_scf|^2 =  8.808E-13

     Pert. #  1: Fermi energy shift (Ry) =     4.5363E-03     1.0340E-25

      iter #   7 total cpu time : 40603.0 secs   av.it.:  10.8
      thresh= 9.385E-08 alpha_mix =  0.300 |ddv_scf|^2 =  2.573E-13

     Pert. #  1: Fermi energy shift (Ry) =     4.5511E-03     1.0340E-25

      iter #   8 total cpu time : 40699.6 secs   av.it.:  11.5
      thresh= 5.072E-08 alpha_mix =  0.300 |ddv_scf|^2 =  1.882E-14

     Pert. #  1: Fermi energy shift (Ry) =     4.5526E-03     1.0340E-25

      iter #   9 total cpu time : 40792.3 secs   av.it.:  11.0
      thresh= 1.372E-08 alpha_mix =  0.300 |ddv_scf|^2 =  4.121E-15

     End of self-consistent calculation

     Convergence has been achieved 


     Representation #  52 mode #  52

     Self-consistent Calculation

     Pert. #  1: Fermi energy shift (Ry) =     6.3970E-03     6.7763E-21

      iter #   1 total cpu time : 40850.8 secs   av.it.:   3.9
      thresh= 1.000E-02 alpha_mix =  0.300 |ddv_scf|^2 =  2.286E-08

     Pert. #  1: Fermi energy shift (Ry) =     6.5902E-03    -1.6544E-24

      iter #   2 total cpu time : 40942.1 secs   av.it.:  10.8
      thresh= 1.512E-05 alpha_mix =  0.300 |ddv_scf|^2 =  4.331E-09

     Pert. #  1: Fermi energy shift (Ry) =     7.0503E-03    -8.2718E-25

      iter #   3 total cpu time : 41031.6 secs   av.it.:  10.5
      thresh= 6.581E-06 alpha_mix =  0.300 |ddv_scf|^2 =  9.408E-10

     Pert. #  1: Fermi energy shift (Ry) =     7.0449E-03    -8.2718E-25

      iter #   4 total cpu time : 41128.0 secs   av.it.:  11.4
      thresh= 3.067E-06 alpha_mix =  0.300 |ddv_scf|^2 =  4.659E-11

     Pert. #  1: Fermi energy shift (Ry) =     6.9480E-03    -2.0680E-25

      iter #   5 total cpu time : 41220.4 secs   av.it.:  10.9
      thresh= 6.825E-07 alpha_mix =  0.300 |ddv_scf|^2 =  1.562E-11

     Pert. #  1: Fermi energy shift (Ry) =     6.7442E-03    -4.1359E-25

      iter #   6 total cpu time : 41313.8 secs   av.it.:  11.7
      thresh= 3.953E-07 alpha_mix =  0.300 |ddv_scf|^2 =  8.992E-13

     Pert. #  1: Fermi energy shift (Ry) =     6.7249E-03    -4.1359E-25

      iter #   7 total cpu time : 41402.9 secs   av.it.:  10.5
      thresh= 9.483E-08 alpha_mix =  0.300 |ddv_scf|^2 =  3.067E-13

     Pert. #  1: Fermi energy shift (Ry) =     6.7068E-03    -4.1359E-25

      iter #   8 total cpu time : 41499.0 secs   av.it.:  11.4
      thresh= 5.538E-08 alpha_mix =  0.300 |ddv_scf|^2 =  2.974E-14

     Pert. #  1: Fermi energy shift (Ry) =     6.7030E-03    -4.1359E-25

      iter #   9 total cpu time : 41594.2 secs   av.it.:  11.3
      thresh= 1.725E-08 alpha_mix =  0.300 |ddv_scf|^2 =  3.913E-15

     End of self-consistent calculation

     Convergence has been achieved 


     Representation #  53 mode #  53

     Self-consistent Calculation

     Pert. #  1: Fermi energy shift (Ry) =    -5.0326E-03     6.7763E-21

      iter #   1 total cpu time : 41653.2 secs   av.it.:   3.9
      thresh= 1.000E-02 alpha_mix =  0.300 |ddv_scf|^2 =  1.577E-08

     Pert. #  1: Fermi energy shift (Ry) =    -5.5032E-03    -2.0680E-25

      iter #   2 total cpu time : 41744.0 secs   av.it.:  10.7
      thresh= 1.256E-05 alpha_mix =  0.300 |ddv_scf|^2 =  3.350E-09

     Pert. #  1: Fermi energy shift (Ry) =    -5.4567E-03    -1.0340E-25

      iter #   3 total cpu time : 41835.8 secs   av.it.:  10.9
      thresh= 5.788E-06 alpha_mix =  0.300 |ddv_scf|^2 =  7.611E-10

     Pert. #  1: Fermi energy shift (Ry) =    -5.5583E-03     4.1359E-25

      iter #   4 total cpu time : 41931.6 secs   av.it.:  11.4
      thresh= 2.759E-06 alpha_mix =  0.300 |ddv_scf|^2 =  3.828E-11

     Pert. #  1: Fermi energy shift (Ry) =    -5.4831E-03     1.0340E-25

      iter #   5 total cpu time : 42027.1 secs   av.it.:  11.3
      thresh= 6.187E-07 alpha_mix =  0.300 |ddv_scf|^2 =  9.182E-12

     Pert. #  1: Fermi energy shift (Ry) =    -5.4555E-03     5.1699E-26

      iter #   6 total cpu time : 42118.7 secs   av.it.:  11.5
      thresh= 3.030E-07 alpha_mix =  0.300 |ddv_scf|^2 =  7.692E-13

     Pert. #  1: Fermi energy shift (Ry) =    -5.4395E-03     6.4623E-27

      iter #   7 total cpu time : 42202.0 secs   av.it.:  10.4
      thresh= 8.770E-08 alpha_mix =  0.300 |ddv_scf|^2 =  2.817E-13

     Pert. #  1: Fermi energy shift (Ry) =    -5.4194E-03    -1.2925E-26

      iter #   8 total cpu time : 42293.3 secs   av.it.:  11.7
      thresh= 5.308E-08 alpha_mix =  0.300 |ddv_scf|^2 =  7.828E-15

     End of self-consistent calculation

     Convergence has been achieved 


     Representation #  54 mode #  54

     Self-consistent Calculation

     Pert. #  1: Fermi energy shift (Ry) =     2.4186E-03     5.2940E-23

      iter #   1 total cpu time : 42350.3 secs   av.it.:   4.0
      thresh= 1.000E-02 alpha_mix =  0.300 |ddv_scf|^2 =  2.547E-07

     Pert. #  1: Fermi energy shift (Ry) =     5.4455E-03    -3.3087E-24

      iter #   2 total cpu time : 42433.0 secs   av.it.:  10.4
      thresh= 5.046E-05 alpha_mix =  0.300 |ddv_scf|^2 =  4.419E-08

     Pert. #  1: Fermi energy shift (Ry) =     4.6050E-03     3.3087E-24

      iter #   3 total cpu time : 42513.6 secs   av.it.:  10.0
      thresh= 2.102E-05 alpha_mix =  0.300 |ddv_scf|^2 =  9.036E-10

     Pert. #  1: Fermi energy shift (Ry) =     4.7671E-03    -8.2718E-25

      iter #   4 total cpu time : 42603.2 secs   av.it.:  11.4
      thresh= 3.006E-06 alpha_mix =  0.300 |ddv_scf|^2 =  1.638E-10

     Pert. #  1: Fermi energy shift (Ry) =     4.6468E-03    -4.1359E-25

      iter #   5 total cpu time : 42691.5 secs   av.it.:  11.2
      thresh= 1.280E-06 alpha_mix =  0.300 |ddv_scf|^2 =  1.746E-11

     Pert. #  1: Fermi energy shift (Ry) =     4.5382E-03    -2.0680E-25

      iter #   6 total cpu time : 42783.2 secs   av.it.:  11.7
      thresh= 4.179E-07 alpha_mix =  0.300 |ddv_scf|^2 =  8.808E-13

     Pert. #  1: Fermi energy shift (Ry) =     4.5411E-03    -4.1359E-25

      iter #   7 total cpu time : 42869.4 secs   av.it.:  10.8
      thresh= 9.385E-08 alpha_mix =  0.300 |ddv_scf|^2 =  2.573E-13

     Pert. #  1: Fermi energy shift (Ry) =     4.5559E-03    -4.1359E-25

      iter #   8 total cpu time : 42960.1 secs   av.it.:  11.5
      thresh= 5.072E-08 alpha_mix =  0.300 |ddv_scf|^2 =  1.881E-14

     Pert. #  1: Fermi energy shift (Ry) =     4.5574E-03    -4.1359E-25

      iter #   9 total cpu time : 43047.4 secs   av.it.:  11.0
      thresh= 1.371E-08 alpha_mix =  0.300 |ddv_scf|^2 =  4.120E-15

     End of self-consistent calculation

     Convergence has been achieved 


     Representation #  55 mode #  55

     Self-consistent Calculation

     Pert. #  1: Fermi energy shift (Ry) =    -3.0330E-03     3.3881E-21

      iter #   1 total cpu time : 43102.0 secs   av.it.:   3.9
      thresh= 1.000E-02 alpha_mix =  0.300 |ddv_scf|^2 =  2.556E-08

     Pert. #  1: Fermi energy shift (Ry) =    -4.9965E-03     8.2718E-25

      iter #   2 total cpu time : 43186.6 secs   av.it.:  10.6
      thresh= 1.599E-05 alpha_mix =  0.300 |ddv_scf|^2 =  4.963E-09
mpirun: Forwarding signal 18 to job
