
     Program PWSCF v.6.7MaX starts on 31May2026 at 12:38:48 

     This program is part of the open-source Quantum ESPRESSO suite
     for quantum simulation of materials; please cite
         "P. Giannozzi et al., J. Phys.:Condens. Matter 21 395502 (2009);
         "P. Giannozzi et al., J. Phys.:Condens. Matter 29 465901 (2017);
          URL http://www.quantum-espresso.org", 
     in publications or presentations arising from this work. More details at
     http://www.quantum-espresso.org/quote

     Parallel version (MPI), running on     9 processors

     MPI processes distributed on     1 nodes
     R & G space division:  proc/nbgrp/npool/nimage =       9
     Reading input from scf.in

     Current dimensions of program PWSCF are:
     Max number of different atomic species (ntypx) = 10
     Max number of k-points (npk) =  40000
     Max angular momentum in pseudopotentials (lmaxx) =  3
     file Y.pbe-spn-rrkjus_psl.1.0.0.UPF: wavefunction(s)  4S renormalized

     Subspace diagonalization in iterative solution of the eigenvalue problem:
     a serial algorithm will be used


     Parallelization info
     --------------------
     sticks:   dense  smooth     PW     G-vecs:    dense   smooth      PW
     Min         230      92     28                14097     3570     634
     Max         231      93     29                14105     3574     641
     Sum        2075     835    257               126911    32145    5729



     bravais-lattice index     =            0
     lattice parameter (alat)  =       6.1688  a.u.
     unit-cell volume          =     332.0468 (a.u.)^3
     number of atoms/cell      =           20
     number of atomic types    =            2
     number of electrons       =        40.00
     number of Kohn-Sham states=           24
     kinetic-energy cutoff     =      80.0000  Ry
     charge density cutoff     =     800.0000  Ry
     scf convergence threshold =      1.0E-10
     mixing beta               =       0.3000
     number of iterations used =            8  plain     mixing
     Exchange-correlation= PBE
                           (   1   4   3   4   0   0   0)

     celldm(1)=   6.168757  celldm(2)=   0.000000  celldm(3)=   0.000000
     celldm(4)=   0.000000  celldm(5)=   0.000000  celldm(6)=   0.000000

     crystal axes: (cart. coord. in units of alat)
               a(1) = (   0.976061  -0.005297   0.217433 )  
               a(2) = (  -0.492610   0.853235   0.000014 )  
               a(3) = (   0.103808   0.059908   1.734747 )  

     reciprocal axes: (cart. coord. in units 2 pi/alat)
               b(1) = (  1.046401  0.604135 -0.083480 )  
               b(2) = (  0.015705  1.181078 -0.041727 )  
               b(3) = ( -0.131156 -0.075731  0.586917 )  


     PseudoPot. # 1 for Y  read from file:
     ./pseudo/Y.pbe-spn-rrkjus_psl.1.0.0.UPF
     MD5 check sum: 5fe32e6a006803c2ec2edff47948a3c8
     Pseudo is Ultrasoft + core correction, Zval = 11.0
     Generated using &quot;atomic&quot; code by A. Dal Corso  v.6.2.2
     Using radial grid of 1223 points,  6 beta functions with: 
                l(1) =   0
                l(2) =   0
                l(3) =   1
                l(4) =   1
                l(5) =   2
                l(6) =   2
     Q(r) pseudized with 0 coefficients 


     PseudoPot. # 2 for H  read from file:
     ./pseudo/H.pbe-rrkjus_psl.1.0.0.UPF
     MD5 check sum: 3f4114867bd07edc7f1424d066fc1888
     Pseudo is Ultrasoft, Zval =  1.0
     Generated using &quot;atomic&quot; code by A. Dal Corso  v.6.3MaX
     Using radial grid of  929 points,  2 beta functions with: 
                l(1) =   0
                l(2) =   0
     Q(r) pseudized with 0 coefficients 


     atomic species   valence    mass     pseudopotential
        Y             11.00    88.90590     Y ( 1.00)
        H              1.00     1.00800     H ( 1.00)

     No symmetry found


                                    s                        frac. trans.

      isym =  1     identity                                     

 cryst.   s( 1) = (     1          0          0      )
                  (     0          1          0      )
                  (     0          0          1      )

 cart.    s( 1) = (  1.0000000  0.0000000 -0.0000000 )
                  (  0.0000000  1.0000000 -0.0000000 )
                  (  0.0000000  0.0000000  1.0000000 )


   Cartesian axes

     site n.     atom                  positions (alat units)
         1           Y   tau(   1) = (   0.3990051   0.2303615   0.5451591  )
         2           Y   tau(   2) = (   0.1882501   0.6774899   1.4070346  )
         3           H   tau(   3) = (  -0.0726459  -0.0419632   0.3762207  )
         4           H   tau(   4) = (   0.1764676   0.1018471   1.3585266  )
         5           H   tau(   5) = (  -0.0545678   0.5372881   0.2825727  )
         6           H   tau(   6) = (   0.6418469   0.3705220   1.6696211  )
         7           H   tau(   7) = (   0.0142637   0.2884155   0.9868385  )
         8           H   tau(   8) = (   0.8229506   0.1864921   0.9653493  )
         9           H   tau(   9) = (  -0.1286654   0.4945566   0.5994432  )
        10           H   tau(  10) = (   0.1311838   0.6445561   0.8453399  )
        11           H   tau(  11) = (   0.5729521   0.6194677   0.9653371  )
        12           H   tau(  12) = (   0.7159000   0.4133304   1.3527507  )
        13           H   tau(  13) = (   0.4560677   0.2633023   1.1068535  )
        14           H   tau(  14) = (  -0.2357030   0.7214097   0.9868625  )
        15           H   tau(  15) = (   0.0838538   0.3142231   1.8675536  )
        16           H   tau(  16) = (   0.3490680   0.7703414   1.9756241  )
        17           H   tau(  17) = (   0.6072507   0.6534765   1.8194010  )
        18           H   tau(  18) = (   0.7657975   0.1391412   0.0846331  )
        19           H   tau(  19) = (   0.2381795   0.1375240  -0.0234304  )
        20           H   tau(  20) = (  -0.2823194   0.7087367   0.1327994  )

   Crystallographic axes

     site n.     atom                  positions (cryst. coord.)
         1           Y   tau(   1) = (  0.5111789  0.2555933  0.2501855  )
         2           Y   tau(   2) = (  0.4888210  0.7444135  0.7498145  )
         3           H   tau(   3) = ( -0.1327752 -0.0664014  0.2335160  )
         4           H   tau(   4) = (  0.1327752  0.0663733  0.7664840  )
         5           H   tau(   5) = (  0.2439056  0.6219314  0.1323139  )
         6           H   tau(   6) = (  0.7560944  0.3780269  0.8676862  )
         7           H   tau(   7) = (  0.1067860  0.2996873  0.5554790  )
         8           H   tau(   8) = (  0.8932154  0.1929047  0.4445215  )
         9           H   tau(   9) = (  0.1141017  0.5570763  0.3312449  )
        10           H   tau(  10) = (  0.4561007  0.7280578  0.4301253  )
        11           H   tau(  11) = (  0.8931934  0.7003572  0.4445132  )
        12           H   tau(  12) = (  0.8858981  0.4429721  0.6687553  )
        13           H   tau(  13) = (  0.5438995  0.2719572  0.5698745  )
        14           H   tau(  14) = (  0.1068056  0.8071607  0.5554864  )
        15           H   tau(  15) = (  0.1216742  0.2945113  1.0613036  )
        16           H   tau(  16) = (  0.6657299  0.8328783  1.0554052  )
        17           H   tau(  17) = (  0.8783319  0.7054251  0.9387034  )
        18           H   tau(  18) = (  0.8783262  0.1728317 -0.0613035  )
        19           H   tau(  19) = (  0.3342703  0.1671448 -0.0554052  )
        20           H   tau(  20) = (  0.1216673  0.8270985  0.0612964  )

     number of k points=   580  Methfessel-Paxton smearing, width (Ry)=  0.0100
                       cart. coord. in units 2pi/alat
        k(    1) = (   0.0000000   0.0000000   0.0000000), wk =   0.0017361
        k(    2) = (  -0.0163945  -0.0094664   0.0733646), wk =   0.0034722
        k(    3) = (  -0.0327889  -0.0189328   0.1467291), wk =   0.0034722
        k(    4) = (  -0.0491834  -0.0283993   0.2200937), wk =   0.0034722
        k(    5) = (   0.0655779   0.0378657  -0.2934583), wk =   0.0017361
        k(    6) = (   0.0013087   0.0984232  -0.0034773), wk =   0.0034722
        k(    7) = (  -0.0150857   0.0889568   0.0698873), wk =   0.0034722
        k(    8) = (  -0.0314802   0.0794903   0.1432519), wk =   0.0034722
        k(    9) = (  -0.0478747   0.0700239   0.2166164), wk =   0.0034722
        k(   10) = (   0.0668866   0.1362889  -0.2969355), wk =   0.0034722
        k(   11) = (   0.0504921   0.1268225  -0.2235710), wk =   0.0034722
        k(   12) = (   0.0340977   0.1173560  -0.1502064), wk =   0.0034722
        k(   13) = (   0.0177032   0.1078896  -0.0768418), wk =   0.0034722
        k(   14) = (   0.0026175   0.1968464  -0.0069545), wk =   0.0034722
        k(   15) = (  -0.0137770   0.1873800   0.0664100), wk =   0.0034722
        k(   16) = (  -0.0301715   0.1779135   0.1397746), wk =   0.0034722
        k(   17) = (  -0.0465660   0.1684471   0.2131392), wk =   0.0034722
        k(   18) = (   0.0681953   0.2347121  -0.3004128), wk =   0.0034722
        k(   19) = (   0.0518009   0.2252456  -0.2270482), wk =   0.0034722
        k(   20) = (   0.0354064   0.2157792  -0.1536837), wk =   0.0034722
        k(   21) = (   0.0190119   0.2063128  -0.0803191), wk =   0.0034722
        k(   22) = (   0.0039262   0.2952696  -0.0104318), wk =   0.0034722
        k(   23) = (  -0.0124683   0.2858031   0.0629328), wk =   0.0034722
        k(   24) = (  -0.0288628   0.2763367   0.1362973), wk =   0.0034722
        k(   25) = (  -0.0452572   0.2668703   0.2096619), wk =   0.0034722
        k(   26) = (   0.0695041   0.3331352  -0.3038901), wk =   0.0034722
        k(   27) = (   0.0531096   0.3236688  -0.2305255), wk =   0.0034722
        k(   28) = (   0.0367151   0.3142024  -0.1571609), wk =   0.0034722
        k(   29) = (   0.0203206   0.3047360  -0.0837964), wk =   0.0034722
        k(   30) = (   0.0052349   0.3936928  -0.0139091), wk =   0.0034722
        k(   31) = (  -0.0111596   0.3842263   0.0594555), wk =   0.0034722
        k(   32) = (  -0.0275540   0.3747599   0.1328201), wk =   0.0034722
        k(   33) = (  -0.0439485   0.3652935   0.2061846), wk =   0.0034722
        k(   34) = (   0.0708128   0.4315584  -0.3073673), wk =   0.0034722
        k(   35) = (   0.0544183   0.4220920  -0.2340028), wk =   0.0034722
        k(   36) = (   0.0380238   0.4126256  -0.1606382), wk =   0.0034722
        k(   37) = (   0.0216294   0.4031592  -0.0872736), wk =   0.0034722
        k(   38) = (   0.0065436   0.4921159  -0.0173863), wk =   0.0034722
        k(   39) = (  -0.0098508   0.4826495   0.0559783), wk =   0.0034722
        k(   40) = (  -0.0262453   0.4731831   0.1293428), wk =   0.0034722
        k(   41) = (  -0.0426398   0.4637167   0.2027074), wk =   0.0034722
        k(   42) = (   0.0721215   0.5299816  -0.3108446), wk =   0.0034722
        k(   43) = (   0.0557270   0.5205152  -0.2374800), wk =   0.0034722
        k(   44) = (   0.0393326   0.5110488  -0.1641155), wk =   0.0034722
        k(   45) = (   0.0229381   0.5015824  -0.0907509), wk =   0.0034722
        k(   46) = (  -0.0078524  -0.5905391   0.0208636), wk =   0.0017361
        k(   47) = (  -0.0242468  -0.6000055   0.0942281), wk =   0.0034722
        k(   48) = (  -0.0406413  -0.6094720   0.1675927), wk =   0.0034722
        k(   49) = (  -0.0570358  -0.6189384   0.2409573), wk =   0.0034722
        k(   50) = (   0.0577255  -0.5526734  -0.2725947), wk =   0.0017361
        k(   51) = (   0.0872001   0.0503446  -0.0069567), wk =   0.0034722
        k(   52) = (   0.0708056   0.0408782   0.0664079), wk =   0.0034722
        k(   53) = (   0.0544112   0.0314118   0.1397724), wk =   0.0034722
        k(   54) = (   0.0380167   0.0219453   0.2131370), wk =   0.0034722
        k(   55) = (   0.1527780   0.0882103  -0.3004150), wk =   0.0034722
        k(   56) = (   0.1363835   0.0787439  -0.2270504), wk =   0.0034722
        k(   57) = (   0.1199890   0.0692774  -0.1536858), wk =   0.0034722
        k(   58) = (   0.1035946   0.0598110  -0.0803213), wk =   0.0034722
        k(   59) = (   0.0885088   0.1487678  -0.0104340), wk =   0.0034722
        k(   60) = (   0.0721144   0.1393014   0.0629306), wk =   0.0034722
        k(   61) = (   0.0557199   0.1298349   0.1362952), wk =   0.0034722
        k(   62) = (   0.0393254   0.1203685   0.2096598), wk =   0.0034722
        k(   63) = (   0.1540867   0.1866335  -0.3038922), wk =   0.0034722
        k(   64) = (   0.1376922   0.1771670  -0.2305277), wk =   0.0034722
        k(   65) = (   0.1212978   0.1677006  -0.1571631), wk =   0.0034722
        k(   66) = (   0.1049033   0.1582342  -0.0837985), wk =   0.0034722
        k(   67) = (   0.0898175   0.2471910  -0.0139112), wk =   0.0034722
        k(   68) = (   0.0734231   0.2377246   0.0594534), wk =   0.0034722
        k(   69) = (   0.0570286   0.2282581   0.1328179), wk =   0.0034722
        k(   70) = (   0.0406341   0.2187917   0.2061825), wk =   0.0034722
        k(   71) = (   0.1553954   0.2850567  -0.3073695), wk =   0.0034722
        k(   72) = (   0.1390010   0.2755902  -0.2340049), wk =   0.0034722
        k(   73) = (   0.1226065   0.2661238  -0.1606403), wk =   0.0034722
        k(   74) = (   0.1062120   0.2566574  -0.0872758), wk =   0.0034722
        k(   75) = (   0.0911263   0.3456142  -0.0173885), wk =   0.0034722
        k(   76) = (   0.0747318   0.3361477   0.0559761), wk =   0.0034722
        k(   77) = (   0.0583373   0.3266813   0.1293407), wk =   0.0034722
        k(   78) = (   0.0419429   0.3172149   0.2027052), wk =   0.0034722
        k(   79) = (   0.1567041   0.3834798  -0.3108467), wk =   0.0034722
        k(   80) = (   0.1403097   0.3740134  -0.2374822), wk =   0.0034722
        k(   81) = (   0.1239152   0.3645470  -0.1641176), wk =   0.0034722
        k(   82) = (   0.1075207   0.3550806  -0.0907530), wk =   0.0034722
        k(   83) = (   0.0924350   0.4440373  -0.0208657), wk =   0.0034722
        k(   84) = (   0.0760405   0.4345709   0.0524988), wk =   0.0034722
        k(   85) = (   0.0596461   0.4251045   0.1258634), wk =   0.0034722
        k(   86) = (   0.0432516   0.4156381   0.1992280), wk =   0.0034722
        k(   87) = (   0.1580129   0.4819030  -0.3143240), wk =   0.0034722
        k(   88) = (   0.1416184   0.4724366  -0.2409594), wk =   0.0034722
        k(   89) = (   0.1252239   0.4629702  -0.1675949), wk =   0.0034722
        k(   90) = (   0.1088295   0.4535038  -0.0942303), wk =   0.0034722
        k(   91) = (   0.0937437   0.5424605  -0.0243430), wk =   0.0034722
        k(   92) = (   0.0773493   0.5329941   0.0490216), wk =   0.0034722
        k(   93) = (   0.0609548   0.5235277   0.1223861), wk =   0.0034722
        k(   94) = (   0.0445603   0.5140613   0.1957507), wk =   0.0034722
        k(   95) = (   0.1593216   0.5803262  -0.3178013), wk =   0.0034722
        k(   96) = (   0.1429271   0.5708598  -0.2444367), wk =   0.0034722
        k(   97) = (   0.1265327   0.5613934  -0.1710721), wk =   0.0034722
        k(   98) = (   0.1101382   0.5519270  -0.0977076), wk =   0.0034722
        k(   99) = (   0.0793477  -0.5401945   0.0139069), wk =   0.0034722
        k(  100) = (   0.0629533  -0.5496610   0.0872715), wk =   0.0034722
        k(  101) = (   0.0465588  -0.5591274   0.1606360), wk =   0.0034722
        k(  102) = (   0.0301643  -0.5685938   0.2340006), wk =   0.0034722
        k(  103) = (   0.1449256  -0.5023288  -0.2795514), wk =   0.0034722
        k(  104) = (   0.1285311  -0.5117953  -0.2061868), wk =   0.0034722
        k(  105) = (   0.1121367  -0.5212617  -0.1328222), wk =   0.0034722
        k(  106) = (   0.0957422  -0.5307281  -0.0594577), wk =   0.0034722
        k(  107) = (   0.0806565  -0.4417713   0.0104296), wk =   0.0034722
        k(  108) = (   0.0642620  -0.4512378   0.0837942), wk =   0.0034722
        k(  109) = (   0.0478675  -0.4607042   0.1571588), wk =   0.0034722
        k(  110) = (   0.0314731  -0.4701706   0.2305233), wk =   0.0034722
        k(  111) = (   0.1462343  -0.4039057  -0.2830286), wk =   0.0034722
        k(  112) = (   0.1298399  -0.4133721  -0.2096641), wk =   0.0034722
        k(  113) = (   0.1134454  -0.4228385  -0.1362995), wk =   0.0034722
        k(  114) = (   0.0970509  -0.4323049  -0.0629349), wk =   0.0034722
        k(  115) = (   0.0819652  -0.3433482   0.0069524), wk =   0.0034722
        k(  116) = (   0.0655707  -0.3528146   0.0803169), wk =   0.0034722
        k(  117) = (   0.0491763  -0.3622810   0.1536815), wk =   0.0034722
        k(  118) = (   0.0327818  -0.3717474   0.2270461), wk =   0.0034722
        k(  119) = (   0.1475431  -0.3054825  -0.2865059), wk =   0.0034722
        k(  120) = (   0.1311486  -0.3149489  -0.2131413), wk =   0.0034722
        k(  121) = (   0.1147541  -0.3244153  -0.1397768), wk =   0.0034722
        k(  122) = (   0.0983597  -0.3338817  -0.0664122), wk =   0.0034722
        k(  123) = (   0.0832739  -0.2449250   0.0034751), wk =   0.0034722
        k(  124) = (   0.0668795  -0.2543914   0.0768397), wk =   0.0034722
        k(  125) = (   0.0504850  -0.2638578   0.1502042), wk =   0.0034722
        k(  126) = (   0.0340905  -0.2733242   0.2235688), wk =   0.0034722
        k(  127) = (   0.1488518  -0.2070593  -0.2899832), wk =   0.0034722
        k(  128) = (   0.1324573  -0.2165257  -0.2166186), wk =   0.0034722
        k(  129) = (   0.1160629  -0.2259921  -0.1432540), wk =   0.0034722
        k(  130) = (   0.0996684  -0.2354585  -0.0698895), wk =   0.0034722
        k(  131) = (   0.0845826  -0.1465018  -0.0000022), wk =   0.0034722
        k(  132) = (   0.0681882  -0.1559682   0.0733624), wk =   0.0034722
        k(  133) = (   0.0517937  -0.1654346   0.1467270), wk =   0.0034722
        k(  134) = (   0.0353992  -0.1749010   0.2200915), wk =   0.0034722
        k(  135) = (   0.1501605  -0.1086361  -0.2934604), wk =   0.0034722
        k(  136) = (   0.1337661  -0.1181025  -0.2200959), wk =   0.0034722
        k(  137) = (   0.1173716  -0.1275689  -0.1467313), wk =   0.0034722
        k(  138) = (   0.1009771  -0.1370354  -0.0733667), wk =   0.0034722
        k(  139) = (   0.0858914  -0.0480786  -0.0034794), wk =   0.0034722
        k(  140) = (   0.0694969  -0.0575450   0.0698851), wk =   0.0034722
        k(  141) = (   0.0531024  -0.0670114   0.1432497), wk =   0.0034722
        k(  142) = (   0.0367080  -0.0764779   0.2166143), wk =   0.0034722
        k(  143) = (   0.1514692  -0.0102129  -0.2969377), wk =   0.0034722
        k(  144) = (   0.1350748  -0.0196793  -0.2235731), wk =   0.0034722
        k(  145) = (   0.1186803  -0.0291457  -0.1502086), wk =   0.0034722
        k(  146) = (   0.1022858  -0.0386122  -0.0768440), wk =   0.0034722
        k(  147) = (   0.1744002   0.1006892  -0.0139134), wk =   0.0034722
        k(  148) = (   0.1580057   0.0912228   0.0594512), wk =   0.0034722
        k(  149) = (   0.1416113   0.0817564   0.1328158), wk =   0.0034722
        k(  150) = (   0.1252168   0.0722899   0.2061803), wk =   0.0034722
        k(  151) = (   0.2399781   0.1385549  -0.3073716), wk =   0.0034722
        k(  152) = (   0.2235836   0.1290885  -0.2340071), wk =   0.0034722
        k(  153) = (   0.2071891   0.1196220  -0.1606425), wk =   0.0034722
        k(  154) = (   0.1907947   0.1101556  -0.0872779), wk =   0.0034722
        k(  155) = (   0.1757089   0.1991124  -0.0173906), wk =   0.0034722
        k(  156) = (   0.1593145   0.1896460   0.0559739), wk =   0.0034722
        k(  157) = (   0.1429200   0.1801795   0.1293385), wk =   0.0034722
        k(  158) = (   0.1265255   0.1707131   0.2027031), wk =   0.0034722
        k(  159) = (   0.2412868   0.2369781  -0.3108489), wk =   0.0034722
        k(  160) = (   0.2248923   0.2275116  -0.2374843), wk =   0.0034722
        k(  161) = (   0.2084979   0.2180452  -0.1641198), wk =   0.0034722
        k(  162) = (   0.1921034   0.2085788  -0.0907552), wk =   0.0034722
        k(  163) = (   0.1770176   0.2975356  -0.0208679), wk =   0.0034722
        k(  164) = (   0.1606232   0.2880691   0.0524967), wk =   0.0034722
        k(  165) = (   0.1442287   0.2786027   0.1258612), wk =   0.0034722
        k(  166) = (   0.1278342   0.2691363   0.1992258), wk =   0.0034722
        k(  167) = (   0.2425955   0.3354013  -0.3143262), wk =   0.0034722
        k(  168) = (   0.2262011   0.3259348  -0.2409616), wk =   0.0034722
        k(  169) = (   0.2098066   0.3164684  -0.1675970), wk =   0.0034722
        k(  170) = (   0.1934121   0.3070020  -0.0942325), wk =   0.0034722
        k(  171) = (   0.1783264   0.3959588  -0.0243452), wk =   0.0034722
        k(  172) = (   0.1619319   0.3864923   0.0490194), wk =   0.0034722
        k(  173) = (   0.1455374   0.3770259   0.1223840), wk =   0.0034722
        k(  174) = (   0.1291430   0.3675595   0.1957485), wk =   0.0034722
        k(  175) = (   0.2439042   0.4338244  -0.3178034), wk =   0.0034722
        k(  176) = (   0.2275098   0.4243580  -0.2444389), wk =   0.0034722
        k(  177) = (   0.2111153   0.4148916  -0.1710743), wk =   0.0034722
        k(  178) = (   0.1947208   0.4054252  -0.0977097), wk =   0.0034722
        k(  179) = (   0.1796351   0.4943819  -0.0278224), wk =   0.0034722
        k(  180) = (   0.1632406   0.4849155   0.0455421), wk =   0.0034722
        k(  181) = (   0.1468462   0.4754491   0.1189067), wk =   0.0034722
        k(  182) = (   0.1304517   0.4659827   0.1922713), wk =   0.0034722
        k(  183) = (   0.2452130   0.5322476  -0.3212807), wk =   0.0034722
        k(  184) = (   0.2288185   0.5227812  -0.2479161), wk =   0.0034722
        k(  185) = (   0.2124240   0.5133148  -0.1745516), wk =   0.0034722
        k(  186) = (   0.1960296   0.5038484  -0.1011870), wk =   0.0034722
        k(  187) = (   0.1809438   0.5928051  -0.0312997), wk =   0.0034722
        k(  188) = (   0.1645494   0.5833387   0.0420649), wk =   0.0034722
        k(  189) = (   0.1481549   0.5738723   0.1154294), wk =   0.0034722
        k(  190) = (   0.1317604   0.5644059   0.1887940), wk =   0.0034722
        k(  191) = (   0.2465217   0.6306708  -0.3247580), wk =   0.0034722
        k(  192) = (   0.2301272   0.6212044  -0.2513934), wk =   0.0034722
        k(  193) = (   0.2137328   0.6117380  -0.1780288), wk =   0.0034722
        k(  194) = (   0.1973383   0.6022716  -0.1046643), wk =   0.0034722
        k(  195) = (   0.1665478  -0.4898499   0.0069502), wk =   0.0034722
        k(  196) = (   0.1501534  -0.4993164   0.0803148), wk =   0.0034722
        k(  197) = (   0.1337589  -0.5087828   0.1536793), wk =   0.0034722
        k(  198) = (   0.1173644  -0.5182492   0.2270439), wk =   0.0034722
        k(  199) = (   0.2321257  -0.4519842  -0.2865081), wk =   0.0034722
        k(  200) = (   0.2157312  -0.4614507  -0.2131435), wk =   0.0034722
        k(  201) = (   0.1993368  -0.4709171  -0.1397789), wk =   0.0034722
        k(  202) = (   0.1829423  -0.4803835  -0.0664144), wk =   0.0034722
        k(  203) = (   0.1678566  -0.3914267   0.0034729), wk =   0.0034722
        k(  204) = (   0.1514621  -0.4008932   0.0768375), wk =   0.0034722
        k(  205) = (   0.1350676  -0.4103596   0.1502021), wk =   0.0034722
        k(  206) = (   0.1186732  -0.4198260   0.2235666), wk =   0.0034722
        k(  207) = (   0.2334344  -0.3535611  -0.2899853), wk =   0.0034722
        k(  208) = (   0.2170400  -0.3630275  -0.2166208), wk =   0.0034722
        k(  209) = (   0.2006455  -0.3724939  -0.1432562), wk =   0.0034722
        k(  210) = (   0.1842510  -0.3819603  -0.0698916), wk =   0.0034722
        k(  211) = (   0.1691653  -0.2930036  -0.0000043), wk =   0.0034722
        k(  212) = (   0.1527708  -0.3024700   0.0733602), wk =   0.0034722
        k(  213) = (   0.1363764  -0.3119364   0.1467248), wk =   0.0034722
        k(  214) = (   0.1199819  -0.3214028   0.2200894), wk =   0.0034722
        k(  215) = (   0.2347432  -0.2551379  -0.2934626), wk =   0.0034722
        k(  216) = (   0.2183487  -0.2646043  -0.2200980), wk =   0.0034722
        k(  217) = (   0.2019542  -0.2740707  -0.1467335), wk =   0.0034722
        k(  218) = (   0.1855598  -0.2835371  -0.0733689), wk =   0.0034722
        k(  219) = (   0.1704740  -0.1945804  -0.0034816), wk =   0.0034722
        k(  220) = (   0.1540795  -0.2040468   0.0698830), wk =   0.0034722
        k(  221) = (   0.1376851  -0.2135132   0.1432476), wk =   0.0034722
        k(  222) = (   0.1212906  -0.2229796   0.2166121), wk =   0.0034722
        k(  223) = (   0.2360519  -0.1567147  -0.2969399), wk =   0.0034722
        k(  224) = (   0.2196574  -0.1661811  -0.2235753), wk =   0.0034722
        k(  225) = (   0.2032630  -0.1756475  -0.1502107), wk =   0.0034722
        k(  226) = (   0.1868685  -0.1851139  -0.0768462), wk =   0.0034722
        k(  227) = (   0.1717827  -0.0961572  -0.0069588), wk =   0.0034722
        k(  228) = (   0.1553883  -0.1056236   0.0664057), wk =   0.0034722
        k(  229) = (   0.1389938  -0.1150900   0.1397703), wk =   0.0034722
        k(  230) = (   0.1225993  -0.1245564   0.2131349), wk =   0.0034722
        k(  231) = (   0.2373606  -0.0582915  -0.3004171), wk =   0.0034722
        k(  232) = (   0.2209661  -0.0677579  -0.2270525), wk =   0.0034722
        k(  233) = (   0.2045717  -0.0772243  -0.1536880), wk =   0.0034722
        k(  234) = (   0.1881772  -0.0866908  -0.0803234), wk =   0.0034722
        k(  235) = (   0.1730915   0.0022660  -0.0104361), wk =   0.0034722
        k(  236) = (   0.1566970  -0.0072004   0.0629285), wk =   0.0034722
        k(  237) = (   0.1403025  -0.0166668   0.1362930), wk =   0.0034722
        k(  238) = (   0.1239081  -0.0261333   0.2096576), wk =   0.0034722
        k(  239) = (   0.2386693   0.0401317  -0.3038944), wk =   0.0034722
        k(  240) = (   0.2222749   0.0306653  -0.2305298), wk =   0.0034722
        k(  241) = (   0.2058804   0.0211988  -0.1571652), wk =   0.0034722
        k(  242) = (   0.1894859   0.0117324  -0.0838007), wk =   0.0034722
        k(  243) = (   0.2616003   0.1510338  -0.0208701), wk =   0.0034722
        k(  244) = (   0.2452058   0.1415674   0.0524945), wk =   0.0034722
        k(  245) = (   0.2288114   0.1321009   0.1258591), wk =   0.0034722
        k(  246) = (   0.2124169   0.1226345   0.1992236), wk =   0.0034722
        k(  247) = (   0.3271782   0.1888995  -0.3143283), wk =   0.0034722
        k(  248) = (   0.3107837   0.1794331  -0.2409638), wk =   0.0034722
        k(  249) = (   0.2943892   0.1699666  -0.1675992), wk =   0.0034722
        k(  250) = (   0.2779948   0.1605002  -0.0942346), wk =   0.0034722
        k(  251) = (   0.2629090   0.2494570  -0.0243473), wk =   0.0034722
        k(  252) = (   0.2465145   0.2399906   0.0490172), wk =   0.0034722
        k(  253) = (   0.2301201   0.2305241   0.1223818), wk =   0.0034722
        k(  254) = (   0.2137256   0.2210577   0.1957464), wk =   0.0034722
        k(  255) = (   0.3284869   0.2873227  -0.3178056), wk =   0.0034722
        k(  256) = (   0.3120924   0.2778562  -0.2444410), wk =   0.0034722
        k(  257) = (   0.2956980   0.2683898  -0.1710765), wk =   0.0034722
        k(  258) = (   0.2793035   0.2589234  -0.0977119), wk =   0.0034722
        k(  259) = (   0.2642177   0.3478802  -0.0278246), wk =   0.0034722
        k(  260) = (   0.2478233   0.3384137   0.0455400), wk =   0.0034722
        k(  261) = (   0.2314288   0.3289473   0.1189045), wk =   0.0034722
        k(  262) = (   0.2150343   0.3194809   0.1922691), wk =   0.0034722
        k(  263) = (   0.3297956   0.3857459  -0.3212829), wk =   0.0034722
        k(  264) = (   0.3134011   0.3762794  -0.2479183), wk =   0.0034722
        k(  265) = (   0.2970067   0.3668130  -0.1745537), wk =   0.0034722
        k(  266) = (   0.2806122   0.3573466  -0.1011892), wk =   0.0034722
        k(  267) = (   0.2655265   0.4463034  -0.0313019), wk =   0.0034722
        k(  268) = (   0.2491320   0.4368369   0.0420627), wk =   0.0034722
        k(  269) = (   0.2327375   0.4273705   0.1154273), wk =   0.0034722
        k(  270) = (   0.2163431   0.4179041   0.1887919), wk =   0.0034722
        k(  271) = (   0.3311043   0.4841690  -0.3247601), wk =   0.0034722
        k(  272) = (   0.3147099   0.4747026  -0.2513956), wk =   0.0034722
        k(  273) = (   0.2983154   0.4652362  -0.1780310), wk =   0.0034722
        k(  274) = (   0.2819209   0.4557698  -0.1046664), wk =   0.0034722
        k(  275) = (   0.2668352   0.5447265  -0.0347791), wk =   0.0034722
        k(  276) = (   0.2504407   0.5352601   0.0385855), wk =   0.0034722
        k(  277) = (   0.2340463   0.5257937   0.1119500), wk =   0.0034722
        k(  278) = (   0.2176518   0.5163273   0.1853146), wk =   0.0034722
        k(  279) = (   0.3324131   0.5825922  -0.3282374), wk =   0.0034722
        k(  280) = (   0.3160186   0.5731258  -0.2548728), wk =   0.0034722
        k(  281) = (   0.2996241   0.5636594  -0.1815082), wk =   0.0034722
        k(  282) = (   0.2832297   0.5541930  -0.1081437), wk =   0.0034722
        k(  283) = (   0.2681439   0.6431497  -0.0382564), wk =   0.0034722
        k(  284) = (   0.2517495   0.6336833   0.0351082), wk =   0.0034722
        k(  285) = (   0.2353550   0.6242169   0.1084728), wk =   0.0034722
        k(  286) = (   0.2189605   0.6147505   0.1818373), wk =   0.0034722
        k(  287) = (   0.3337218   0.6810154  -0.3317146), wk =   0.0034722
        k(  288) = (   0.3173273   0.6715490  -0.2583501), wk =   0.0034722
        k(  289) = (   0.3009329   0.6620826  -0.1849855), wk =   0.0034722
        k(  290) = (   0.2845384   0.6526162  -0.1116209), wk =   0.0034722
        k(  291) = (   0.2537479  -0.4395053  -0.0000065), wk =   0.0034722
        k(  292) = (   0.2373535  -0.4489718   0.0733581), wk =   0.0034722
        k(  293) = (   0.2209590  -0.4584382   0.1467227), wk =   0.0034722
        k(  294) = (   0.2045645  -0.4679046   0.2200872), wk =   0.0034722
        k(  295) = (   0.3193258  -0.4016396  -0.2934648), wk =   0.0034722
        k(  296) = (   0.3029313  -0.4111061  -0.2201002), wk =   0.0034722
        k(  297) = (   0.2865369  -0.4205725  -0.1467356), wk =   0.0034722
        k(  298) = (   0.2701424  -0.4300389  -0.0733710), wk =   0.0034722
        k(  299) = (   0.2550567  -0.3410821  -0.0034837), wk =   0.0034722
        k(  300) = (   0.2386622  -0.3505486   0.0698808), wk =   0.0034722
        k(  301) = (   0.2222677  -0.3600150   0.1432454), wk =   0.0034722
        k(  302) = (   0.2058733  -0.3694814   0.2166100), wk =   0.0034722
        k(  303) = (   0.3206345  -0.3032165  -0.2969420), wk =   0.0034722
        k(  304) = (   0.3042401  -0.3126829  -0.2235774), wk =   0.0034722
        k(  305) = (   0.2878456  -0.3221493  -0.1502129), wk =   0.0034722
        k(  306) = (   0.2714511  -0.3316157  -0.0768483), wk =   0.0034722
        k(  307) = (   0.2563654  -0.2426590  -0.0069610), wk =   0.0034722
        k(  308) = (   0.2399709  -0.2521254   0.0664036), wk =   0.0034722
        k(  309) = (   0.2235765  -0.2615918   0.1397681), wk =   0.0034722
        k(  310) = (   0.2071820  -0.2710582   0.2131327), wk =   0.0034722
        k(  311) = (   0.3219433  -0.2047933  -0.3004193), wk =   0.0034722
        k(  312) = (   0.3055488  -0.2142597  -0.2270547), wk =   0.0034722
        k(  313) = (   0.2891543  -0.2237261  -0.1536901), wk =   0.0034722
        k(  314) = (   0.2727599  -0.2331925  -0.0803256), wk =   0.0034722
        k(  315) = (   0.2576741  -0.1442358  -0.0104383), wk =   0.0034722
        k(  316) = (   0.2412796  -0.1537022   0.0629263), wk =   0.0034722
        k(  317) = (   0.2248852  -0.1631686   0.1362909), wk =   0.0034722
        k(  318) = (   0.2084907  -0.1726350   0.2096554), wk =   0.0034722
        k(  319) = (   0.3232520  -0.1063701  -0.3038965), wk =   0.0034722
        k(  320) = (   0.3068575  -0.1158365  -0.2305320), wk =   0.0034722
        k(  321) = (   0.2904631  -0.1253029  -0.1571674), wk =   0.0034722
        k(  322) = (   0.2740686  -0.1347693  -0.0838028), wk =   0.0034722
        k(  323) = (   0.2589828  -0.0458126  -0.0139155), wk =   0.0034722
        k(  324) = (   0.2425884  -0.0552790   0.0594490), wk =   0.0034722
        k(  325) = (   0.2261939  -0.0647454   0.1328136), wk =   0.0034722
        k(  326) = (   0.2097994  -0.0742118   0.2061782), wk =   0.0034722
        k(  327) = (   0.3245607  -0.0079469  -0.3073738), wk =   0.0034722
        k(  328) = (   0.3081662  -0.0174133  -0.2340092), wk =   0.0034722
        k(  329) = (   0.2917718  -0.0268797  -0.1606447), wk =   0.0034722
        k(  330) = (   0.2753773  -0.0363462  -0.0872801), wk =   0.0034722
        k(  331) = (   0.2602916   0.0526106  -0.0173928), wk =   0.0034722
        k(  332) = (   0.2438971   0.0431442   0.0559718), wk =   0.0034722
        k(  333) = (   0.2275026   0.0336778   0.1293363), wk =   0.0034722
        k(  334) = (   0.2111082   0.0242113   0.2027009), wk =   0.0034722
        k(  335) = (   0.3258694   0.0904763  -0.3108511), wk =   0.0034722
        k(  336) = (   0.3094750   0.0810099  -0.2374865), wk =   0.0034722
        k(  337) = (   0.2930805   0.0715434  -0.1641219), wk =   0.0034722
        k(  338) = (   0.2766860   0.0620770  -0.0907574), wk =   0.0034722
        k(  339) = (   0.3488004   0.2013784  -0.0278267), wk =   0.0034722
        k(  340) = (   0.3324059   0.1919120   0.0455378), wk =   0.0034722
        k(  341) = (   0.3160115   0.1824455   0.1189024), wk =   0.0034722
        k(  342) = (   0.2996170   0.1729791   0.1922670), wk =   0.0034722
        k(  343) = (   0.4143783   0.2392441  -0.3212850), wk =   0.0034722
        k(  344) = (   0.3979838   0.2297777  -0.2479205), wk =   0.0034722
        k(  345) = (   0.3815893   0.2203112  -0.1745559), wk =   0.0034722
        k(  346) = (   0.3651949   0.2108448  -0.1011913), wk =   0.0034722
        k(  347) = (   0.3501091   0.2998016  -0.0313040), wk =   0.0034722
        k(  348) = (   0.3337146   0.2903352   0.0420606), wk =   0.0034722
        k(  349) = (   0.3173202   0.2808687   0.1154251), wk =   0.0034722
        k(  350) = (   0.3009257   0.2714023   0.1887897), wk =   0.0034722
        k(  351) = (   0.4156870   0.3376673  -0.3247623), wk =   0.0034722
        k(  352) = (   0.3992925   0.3282008  -0.2513977), wk =   0.0034722
        k(  353) = (   0.3828981   0.3187344  -0.1780331), wk =   0.0034722
        k(  354) = (   0.3665036   0.3092680  -0.1046686), wk =   0.0034722
        k(  355) = (   0.3514178   0.3982248  -0.0347813), wk =   0.0034722
        k(  356) = (   0.3350234   0.3887583   0.0385833), wk =   0.0034722
        k(  357) = (   0.3186289   0.3792919   0.1119479), wk =   0.0034722
        k(  358) = (   0.3022344   0.3698255   0.1853124), wk =   0.0034722
        k(  359) = (   0.4169957   0.4360905  -0.3282395), wk =   0.0034722
        k(  360) = (   0.4006012   0.4266240  -0.2548750), wk =   0.0034722
        k(  361) = (   0.3842068   0.4171576  -0.1815104), wk =   0.0034722
        k(  362) = (   0.3678123   0.4076912  -0.1081458), wk =   0.0034722
        k(  363) = (   0.3527266   0.4966480  -0.0382585), wk =   0.0034722
        k(  364) = (   0.3363321   0.4871815   0.0351060), wk =   0.0034722
        k(  365) = (   0.3199376   0.4777151   0.1084706), wk =   0.0034722
        k(  366) = (   0.3035432   0.4682487   0.1818352), wk =   0.0034722
        k(  367) = (   0.4183044   0.5345136  -0.3317168), wk =   0.0034722
        k(  368) = (   0.4019100   0.5250472  -0.2583522), wk =   0.0034722
        k(  369) = (   0.3855155   0.5155808  -0.1849877), wk =   0.0034722
        k(  370) = (   0.3691210   0.5061144  -0.1116231), wk =   0.0034722
        k(  371) = (   0.3540353   0.5950711  -0.0417358), wk =   0.0034722
        k(  372) = (   0.3376408   0.5856047   0.0316288), wk =   0.0034722
        k(  373) = (   0.3212464   0.5761383   0.1049933), wk =   0.0034722
        k(  374) = (   0.3048519   0.5666719   0.1783579), wk =   0.0034722
        k(  375) = (   0.4196132   0.6329368  -0.3351941), wk =   0.0034722
        k(  376) = (   0.4032187   0.6234704  -0.2618295), wk =   0.0034722
        k(  377) = (   0.3868242   0.6140040  -0.1884649), wk =   0.0034722
        k(  378) = (   0.3704298   0.6045376  -0.1151004), wk =   0.0034722
        k(  379) = (   0.3553440   0.6934943  -0.0452131), wk =   0.0034722
        k(  380) = (   0.3389495   0.6840279   0.0281515), wk =   0.0034722
        k(  381) = (   0.3225551   0.6745615   0.1015161), wk =   0.0034722
        k(  382) = (   0.3061606   0.6650951   0.1748806), wk =   0.0034722
        k(  383) = (   0.4209219   0.7313600  -0.3386713), wk =   0.0034722
        k(  384) = (   0.4045274   0.7218936  -0.2653068), wk =   0.0034722
        k(  385) = (   0.3881330   0.7124272  -0.1919422), wk =   0.0034722
        k(  386) = (   0.3717385   0.7029607  -0.1185776), wk =   0.0034722
        k(  387) = (   0.3409480  -0.3891607  -0.0069632), wk =   0.0034722
        k(  388) = (   0.3245536  -0.3986272   0.0664014), wk =   0.0034722
        k(  389) = (   0.3081591  -0.4080936   0.1397660), wk =   0.0034722
        k(  390) = (   0.2917646  -0.4175600   0.2131305), wk =   0.0034722
        k(  391) = (   0.4065259  -0.3512951  -0.3004214), wk =   0.0034722
        k(  392) = (   0.3901314  -0.3607615  -0.2270569), wk =   0.0034722
        k(  393) = (   0.3737370  -0.3702279  -0.1536923), wk =   0.0034722
        k(  394) = (   0.3573425  -0.3796943  -0.0803277), wk =   0.0034722
        k(  395) = (   0.3422568  -0.2907375  -0.0104404), wk =   0.0034722
        k(  396) = (   0.3258623  -0.3002040   0.0629241), wk =   0.0034722
        k(  397) = (   0.3094678  -0.3096704   0.1362887), wk =   0.0034722
        k(  398) = (   0.2930734  -0.3191368   0.2096533), wk =   0.0034722
        k(  399) = (   0.4078346  -0.2528719  -0.3038987), wk =   0.0034722
        k(  400) = (   0.3914402  -0.2623383  -0.2305341), wk =   0.0034722
        k(  401) = (   0.3750457  -0.2718047  -0.1571696), wk =   0.0034722
        k(  402) = (   0.3586512  -0.2812711  -0.0838050), wk =   0.0034722
        k(  403) = (   0.3435655  -0.1923144  -0.0139177), wk =   0.0034722
        k(  404) = (   0.3271710  -0.2017808   0.0594469), wk =   0.0034722
        k(  405) = (   0.3107766  -0.2112472   0.1328114), wk =   0.0034722
        k(  406) = (   0.2943821  -0.2207136   0.2061760), wk =   0.0034722
        k(  407) = (   0.4091434  -0.1544487  -0.3073760), wk =   0.0034722
        k(  408) = (   0.3927489  -0.1639151  -0.2340114), wk =   0.0034722
        k(  409) = (   0.3763544  -0.1733815  -0.1606468), wk =   0.0034722
        k(  410) = (   0.3599600  -0.1828479  -0.0872823), wk =   0.0034722
        k(  411) = (   0.3448742  -0.0938912  -0.0173950), wk =   0.0034722
        k(  412) = (   0.3284797  -0.1033576   0.0559696), wk =   0.0034722
        k(  413) = (   0.3120853  -0.1128240   0.1293342), wk =   0.0034722
        k(  414) = (   0.2956908  -0.1222904   0.2026987), wk =   0.0034722
        k(  415) = (   0.4104521  -0.0560255  -0.3108532), wk =   0.0034722
        k(  416) = (   0.3940576  -0.0654919  -0.2374887), wk =   0.0034722
        k(  417) = (   0.3776631  -0.0749583  -0.1641241), wk =   0.0034722
        k(  418) = (   0.3612687  -0.0844248  -0.0907595), wk =   0.0034722
        k(  419) = (   0.3461829   0.0045320  -0.0208722), wk =   0.0034722
        k(  420) = (   0.3297885  -0.0049344   0.0524923), wk =   0.0034722
        k(  421) = (   0.3133940  -0.0144008   0.1258569), wk =   0.0034722
        k(  422) = (   0.2969995  -0.0238672   0.1992215), wk =   0.0034722
        k(  423) = (   0.4117608   0.0423977  -0.3143305), wk =   0.0034722
        k(  424) = (   0.3953663   0.0329313  -0.2409659), wk =   0.0034722
        k(  425) = (   0.3789719   0.0234649  -0.1676014), wk =   0.0034722
        k(  426) = (   0.3625774   0.0139984  -0.0942368), wk =   0.0034722
        k(  427) = (   0.3474917   0.1029552  -0.0243495), wk =   0.0034722
        k(  428) = (   0.3310972   0.0934888   0.0490151), wk =   0.0034722
        k(  429) = (   0.3147027   0.0840224   0.1223796), wk =   0.0034722
        k(  430) = (   0.2983083   0.0745559   0.1957442), wk =   0.0034722
        k(  431) = (   0.4130695   0.1408209  -0.3178078), wk =   0.0034722
        k(  432) = (   0.3966751   0.1313545  -0.2444432), wk =   0.0034722
        k(  433) = (   0.3802806   0.1218880  -0.1710786), wk =   0.0034722
        k(  434) = (   0.3638861   0.1124216  -0.0977141), wk =   0.0034722
        k(  435) = (   0.4360005   0.2517230  -0.0347834), wk =   0.0034722
        k(  436) = (   0.4196060   0.2422566   0.0385811), wk =   0.0034722
        k(  437) = (   0.4032116   0.2327901   0.1119457), wk =   0.0034722
        k(  438) = (   0.3868171   0.2233237   0.1853103), wk =   0.0034722
        k(  439) = (   0.5015784   0.2895887  -0.3282417), wk =   0.0034722
        k(  440) = (   0.4851839   0.2801223  -0.2548771), wk =   0.0034722
        k(  441) = (   0.4687894   0.2706558  -0.1815126), wk =   0.0034722
        k(  442) = (   0.4523950   0.2611894  -0.1081480), wk =   0.0034722
        k(  443) = (   0.4373092   0.3501462  -0.0382607), wk =   0.0034722
        k(  444) = (   0.4209147   0.3406798   0.0351039), wk =   0.0034722
        k(  445) = (   0.4045203   0.3312133   0.1084684), wk =   0.0034722
        k(  446) = (   0.3881258   0.3217469   0.1818330), wk =   0.0034722
        k(  447) = (   0.5028871   0.3880119  -0.3317190), wk =   0.0034722
        k(  448) = (   0.4864926   0.3785454  -0.2583544), wk =   0.0034722
        k(  449) = (   0.4700981   0.3690790  -0.1849898), wk =   0.0034722
        k(  450) = (   0.4537037   0.3596126  -0.1116253), wk =   0.0034722
        k(  451) = (   0.4386179   0.4485694  -0.0417380), wk =   0.0034722
        k(  452) = (   0.4222235   0.4391029   0.0316266), wk =   0.0034722
        k(  453) = (   0.4058290   0.4296365   0.1049912), wk =   0.0034722
        k(  454) = (   0.3894345   0.4201701   0.1783557), wk =   0.0034722
        k(  455) = (   0.5041958   0.4864350  -0.3351962), wk =   0.0034722
        k(  456) = (   0.4878013   0.4769686  -0.2618317), wk =   0.0034722
        k(  457) = (   0.4714069   0.4675022  -0.1884671), wk =   0.0034722
        k(  458) = (   0.4550124   0.4580358  -0.1151025), wk =   0.0034722
        k(  459) = (   0.4399267   0.5469926  -0.0452152), wk =   0.0034722
        k(  460) = (   0.4235322   0.5375261   0.0281493), wk =   0.0034722
        k(  461) = (   0.4071377   0.5280597   0.1015139), wk =   0.0034722
        k(  462) = (   0.3907433   0.5185933   0.1748785), wk =   0.0034722
        k(  463) = (   0.5055045   0.5848582  -0.3386735), wk =   0.0034722
        k(  464) = (   0.4891101   0.5753918  -0.2653089), wk =   0.0034722
        k(  465) = (   0.4727156   0.5659254  -0.1919444), wk =   0.0034722
        k(  466) = (   0.4563211   0.5564590  -0.1185798), wk =   0.0034722
        k(  467) = (   0.4412354   0.6454157  -0.0486925), wk =   0.0034722
        k(  468) = (   0.4248409   0.6359493   0.0246721), wk =   0.0034722
        k(  469) = (   0.4084465   0.6264829   0.0980366), wk =   0.0034722
        k(  470) = (   0.3920520   0.6170165   0.1714012), wk =   0.0034722
        k(  471) = (   0.5068133   0.6832814  -0.3421508), wk =   0.0034722
        k(  472) = (   0.4904188   0.6738150  -0.2687862), wk =   0.0034722
        k(  473) = (   0.4740243   0.6643486  -0.1954216), wk =   0.0034722
        k(  474) = (   0.4576299   0.6548822  -0.1220571), wk =   0.0034722
        k(  475) = (   0.4425441   0.7438389  -0.0521698), wk =   0.0034722
        k(  476) = (   0.4261496   0.7343725   0.0211948), wk =   0.0034722
        k(  477) = (   0.4097552   0.7249061   0.0945594), wk =   0.0034722
        k(  478) = (   0.3933607   0.7154397   0.1679239), wk =   0.0034722
        k(  479) = (   0.5081220   0.7817046  -0.3456280), wk =   0.0034722
        k(  480) = (   0.4917275   0.7722382  -0.2722635), wk =   0.0034722
        k(  481) = (   0.4753331   0.7627718  -0.1988989), wk =   0.0034722
        k(  482) = (   0.4589386   0.7533053  -0.1255343), wk =   0.0034722
        k(  483) = (   0.4281481  -0.3388161  -0.0139199), wk =   0.0034722
        k(  484) = (   0.4117537  -0.3482826   0.0594447), wk =   0.0034722
        k(  485) = (   0.3953592  -0.3577490   0.1328093), wk =   0.0034722
        k(  486) = (   0.3789647  -0.3672154   0.2061738), wk =   0.0034722
        k(  487) = (   0.4937260  -0.3009505  -0.3073781), wk =   0.0034722
        k(  488) = (   0.4773315  -0.3104169  -0.2340136), wk =   0.0034722
        k(  489) = (   0.4609371  -0.3198833  -0.1606490), wk =   0.0034722
        k(  490) = (   0.4445426  -0.3293497  -0.0872844), wk =   0.0034722
        k(  491) = (   0.4294569  -0.2403930  -0.0173971), wk =   0.0034722
        k(  492) = (   0.4130624  -0.2498594   0.0559674), wk =   0.0034722
        k(  493) = (   0.3966679  -0.2593258   0.1293320), wk =   0.0034722
        k(  494) = (   0.3802735  -0.2687922   0.2026966), wk =   0.0034722
        k(  495) = (   0.4950347  -0.2025273  -0.3108554), wk =   0.0034722
        k(  496) = (   0.4786403  -0.2119937  -0.2374908), wk =   0.0034722
        k(  497) = (   0.4622458  -0.2214601  -0.1641263), wk =   0.0034722
        k(  498) = (   0.4458513  -0.2309265  -0.0907617), wk =   0.0034722
        k(  499) = (   0.4307656  -0.1419698  -0.0208744), wk =   0.0034722
        k(  500) = (   0.4143711  -0.1514362   0.0524902), wk =   0.0034722
        k(  501) = (   0.3979766  -0.1609026   0.1258548), wk =   0.0034722
        k(  502) = (   0.3815822  -0.1703690   0.1992193), wk =   0.0034722
        k(  503) = (   0.4963435  -0.1041041  -0.3143327), wk =   0.0034722
        k(  504) = (   0.4799490  -0.1135705  -0.2409681), wk =   0.0034722
        k(  505) = (   0.4635545  -0.1230369  -0.1676035), wk =   0.0034722
        k(  506) = (   0.4471601  -0.1325033  -0.0942389), wk =   0.0034722
        k(  507) = (   0.4320743  -0.0435466  -0.0243516), wk =   0.0034722
        k(  508) = (   0.4156798  -0.0530130   0.0490129), wk =   0.0034722
        k(  509) = (   0.3992854  -0.0624794   0.1223775), wk =   0.0034722
        k(  510) = (   0.3828909  -0.0719458   0.1957421), wk =   0.0034722
        k(  511) = (   0.4976522  -0.0056809  -0.3178099), wk =   0.0034722
        k(  512) = (   0.4812577  -0.0151473  -0.2444453), wk =   0.0034722
        k(  513) = (   0.4648632  -0.0246137  -0.1710808), wk =   0.0034722
        k(  514) = (   0.4484688  -0.0340802  -0.0977162), wk =   0.0034722
        k(  515) = (   0.4333830   0.0548766  -0.0278289), wk =   0.0034722
        k(  516) = (   0.4169886   0.0454102   0.0455357), wk =   0.0034722
        k(  517) = (   0.4005941   0.0359438   0.1189002), wk =   0.0034722
        k(  518) = (   0.3841996   0.0264773   0.1922648), wk =   0.0034722
        k(  519) = (   0.4989609   0.0927423  -0.3212872), wk =   0.0034722
        k(  520) = (   0.4825664   0.0832759  -0.2479226), wk =   0.0034722
        k(  521) = (   0.4661720   0.0738095  -0.1745580), wk =   0.0034722
        k(  522) = (   0.4497775   0.0643430  -0.1011935), wk =   0.0034722
        k(  523) = (   0.4346918   0.1532998  -0.0313062), wk =   0.0034722
        k(  524) = (   0.4182973   0.1438334   0.0420584), wk =   0.0034722
        k(  525) = (   0.4019028   0.1343670   0.1154230), wk =   0.0034722
        k(  526) = (   0.3855084   0.1249005   0.1887875), wk =   0.0034722
        k(  527) = (   0.5002696   0.1911655  -0.3247644), wk =   0.0034722
        k(  528) = (   0.4838752   0.1816991  -0.2513999), wk =   0.0034722
        k(  529) = (   0.4674807   0.1722326  -0.1780353), wk =   0.0034722
        k(  530) = (   0.4510862   0.1627662  -0.1046707), wk =   0.0034722
        k(  531) = (  -0.5232006  -0.3020676   0.0417401), wk =   0.0017361
        k(  532) = (  -0.5395951  -0.3115340   0.1151047), wk =   0.0034722
        k(  533) = (  -0.5559895  -0.3210004   0.1884693), wk =   0.0034722
        k(  534) = (  -0.5723840  -0.3304668   0.2618338), wk =   0.0034722
        k(  535) = (  -0.4576227  -0.2642019  -0.2517181), wk =   0.0017361
        k(  536) = (  -0.5218919  -0.2036444   0.0382629), wk =   0.0034722
        k(  537) = (  -0.5382863  -0.2131108   0.1116274), wk =   0.0034722
        k(  538) = (  -0.5546808  -0.2225772   0.1849920), wk =   0.0034722
        k(  539) = (  -0.5710753  -0.2320437   0.2583566), wk =   0.0034722
        k(  540) = (  -0.4563140  -0.1657787  -0.2551954), wk =   0.0034722
        k(  541) = (  -0.4727085  -0.1752451  -0.1818308), wk =   0.0034722
        k(  542) = (  -0.4891029  -0.1847116  -0.1084663), wk =   0.0034722
        k(  543) = (  -0.5054974  -0.1941780  -0.0351017), wk =   0.0034722
        k(  544) = (  -0.5205831  -0.1052212   0.0347856), wk =   0.0034722
        k(  545) = (  -0.5369776  -0.1146876   0.1081502), wk =   0.0034722
        k(  546) = (  -0.5533721  -0.1241541   0.1815147), wk =   0.0034722
        k(  547) = (  -0.5697665  -0.1336205   0.2548793), wk =   0.0034722
        k(  548) = (  -0.4550053  -0.0673555  -0.2586727), wk =   0.0034722
        k(  549) = (  -0.4713997  -0.0768219  -0.1853081), wk =   0.0034722
        k(  550) = (  -0.4877942  -0.0862884  -0.1119435), wk =   0.0034722
        k(  551) = (  -0.5041887  -0.0957548  -0.0385790), wk =   0.0034722
        k(  552) = (  -0.5192744  -0.0067980   0.0313083), wk =   0.0034722
        k(  553) = (  -0.5356689  -0.0162644   0.1046729), wk =   0.0034722
        k(  554) = (  -0.5520633  -0.0257309   0.1780375), wk =   0.0034722
        k(  555) = (  -0.5684578  -0.0351973   0.2514020), wk =   0.0034722
        k(  556) = (  -0.4536965   0.0310677  -0.2621499), wk =   0.0034722
        k(  557) = (  -0.4700910   0.0216012  -0.1887854), wk =   0.0034722
        k(  558) = (  -0.4864855   0.0121348  -0.1154208), wk =   0.0034722
        k(  559) = (  -0.5028799   0.0026684  -0.0420562), wk =   0.0034722
        k(  560) = (  -0.5179657   0.0916252   0.0278311), wk =   0.0034722
        k(  561) = (  -0.5343602   0.0821587   0.1011956), wk =   0.0034722
        k(  562) = (  -0.5507546   0.0726923   0.1745602), wk =   0.0034722
        k(  563) = (  -0.5671491   0.0632259   0.2479248), wk =   0.0034722
        k(  564) = (  -0.4523878   0.1294909  -0.2656272), wk =   0.0034722
        k(  565) = (  -0.4687823   0.1200244  -0.1922626), wk =   0.0034722
        k(  566) = (  -0.4851767   0.1105580  -0.1188981), wk =   0.0034722
        k(  567) = (  -0.5015712   0.1010916  -0.0455335), wk =   0.0034722
        k(  568) = (  -0.5166570   0.1900484   0.0243538), wk =   0.0034722
        k(  569) = (  -0.5330514   0.1805819   0.0977184), wk =   0.0034722
        k(  570) = (  -0.5494459   0.1711155   0.1710829), wk =   0.0034722
        k(  571) = (  -0.5658404   0.1616491   0.2444475), wk =   0.0034722
        k(  572) = (  -0.4510791   0.2279140  -0.2691045), wk =   0.0034722
        k(  573) = (  -0.4674736   0.2184476  -0.1957399), wk =   0.0034722
        k(  574) = (  -0.4838680   0.2089812  -0.1223753), wk =   0.0034722
        k(  575) = (  -0.5002625   0.1995148  -0.0490108), wk =   0.0034722
        k(  576) = (  -0.5310529  -0.8926067   0.0626037), wk =   0.0017361
        k(  577) = (  -0.5474474  -0.9020731   0.1359683), wk =   0.0034722
        k(  578) = (  -0.5638419  -0.9115396   0.2093328), wk =   0.0034722
        k(  579) = (  -0.5802363  -0.9210060   0.2826974), wk =   0.0034722
        k(  580) = (  -0.4654751  -0.8547410  -0.2308546), wk =   0.0017361

                       cryst. coord.
        k(    1) = (   0.0000000   0.0000000   0.0000000), wk =   0.0017361
        k(    2) = (   0.0000000   0.0000000   0.1250000), wk =   0.0034722
        k(    3) = (   0.0000000   0.0000000   0.2500000), wk =   0.0034722
        k(    4) = (   0.0000000  -0.0000000   0.3750000), wk =   0.0034722
        k(    5) = (   0.0000000  -0.0000000  -0.5000000), wk =   0.0017361
        k(    6) = (  -0.0000000   0.0833333   0.0000000), wk =   0.0034722
        k(    7) = (   0.0000000   0.0833333   0.1250000), wk =   0.0034722
        k(    8) = (   0.0000000   0.0833333   0.2500000), wk =   0.0034722
        k(    9) = (   0.0000000   0.0833333   0.3750000), wk =   0.0034722
        k(   10) = (   0.0000000   0.0833333  -0.5000000), wk =   0.0034722
        k(   11) = (  -0.0000000   0.0833333  -0.3750000), wk =   0.0034722
        k(   12) = (   0.0000000   0.0833333  -0.2500000), wk =   0.0034722
        k(   13) = (   0.0000000   0.0833333  -0.1250000), wk =   0.0034722
        k(   14) = (  -0.0000000   0.1666667   0.0000000), wk =   0.0034722
        k(   15) = (  -0.0000000   0.1666667   0.1250000), wk =   0.0034722
        k(   16) = (   0.0000000   0.1666667   0.2500000), wk =   0.0034722
        k(   17) = (   0.0000000   0.1666667   0.3750000), wk =   0.0034722
        k(   18) = (   0.0000000   0.1666667  -0.5000000), wk =   0.0034722
        k(   19) = (  -0.0000000   0.1666667  -0.3750000), wk =   0.0034722
        k(   20) = (   0.0000000   0.1666667  -0.2500000), wk =   0.0034722
        k(   21) = (   0.0000000   0.1666667  -0.1250000), wk =   0.0034722
        k(   22) = (  -0.0000000   0.2500000   0.0000000), wk =   0.0034722
        k(   23) = (   0.0000000   0.2500000   0.1250000), wk =   0.0034722
        k(   24) = (   0.0000000   0.2500000   0.2500000), wk =   0.0034722
        k(   25) = (   0.0000000   0.2500000   0.3750000), wk =   0.0034722
        k(   26) = (   0.0000000   0.2500000  -0.5000000), wk =   0.0034722
        k(   27) = (  -0.0000000   0.2500000  -0.3750000), wk =   0.0034722
        k(   28) = (   0.0000000   0.2500000  -0.2500000), wk =   0.0034722
        k(   29) = (   0.0000000   0.2500000  -0.1250000), wk =   0.0034722
        k(   30) = (  -0.0000000   0.3333333   0.0000000), wk =   0.0034722
        k(   31) = (  -0.0000000   0.3333333   0.1250000), wk =   0.0034722
        k(   32) = (  -0.0000000   0.3333333   0.2500000), wk =   0.0034722
        k(   33) = (   0.0000000   0.3333333   0.3750000), wk =   0.0034722
        k(   34) = (   0.0000000   0.3333333  -0.5000000), wk =   0.0034722
        k(   35) = (  -0.0000000   0.3333333  -0.3750000), wk =   0.0034722
        k(   36) = (   0.0000000   0.3333333  -0.2500000), wk =   0.0034722
        k(   37) = (   0.0000000   0.3333333  -0.1250000), wk =   0.0034722
        k(   38) = (  -0.0000000   0.4166667  -0.0000000), wk =   0.0034722
        k(   39) = (   0.0000000   0.4166667   0.1250000), wk =   0.0034722
        k(   40) = (  -0.0000000   0.4166667   0.2500000), wk =   0.0034722
        k(   41) = (   0.0000000   0.4166667   0.3750000), wk =   0.0034722
        k(   42) = (   0.0000000   0.4166667  -0.5000000), wk =   0.0034722
        k(   43) = (  -0.0000000   0.4166667  -0.3750000), wk =   0.0034722
        k(   44) = (   0.0000000   0.4166667  -0.2500000), wk =   0.0034722
        k(   45) = (   0.0000000   0.4166667  -0.1250000), wk =   0.0034722
        k(   46) = (   0.0000000  -0.5000000   0.0000000), wk =   0.0017361
        k(   47) = (   0.0000000  -0.5000000   0.1250000), wk =   0.0034722
        k(   48) = (  -0.0000000  -0.5000000   0.2500000), wk =   0.0034722
        k(   49) = (   0.0000000  -0.5000000   0.3750000), wk =   0.0034722
        k(   50) = (   0.0000000  -0.5000000  -0.5000000), wk =   0.0017361
        k(   51) = (   0.0833333   0.0000000  -0.0000000), wk =   0.0034722
        k(   52) = (   0.0833333   0.0000000   0.1250000), wk =   0.0034722
        k(   53) = (   0.0833333   0.0000000   0.2500000), wk =   0.0034722
        k(   54) = (   0.0833333   0.0000000   0.3750000), wk =   0.0034722
        k(   55) = (   0.0833333   0.0000000  -0.5000000), wk =   0.0034722
        k(   56) = (   0.0833333   0.0000000  -0.3750000), wk =   0.0034722
        k(   57) = (   0.0833333  -0.0000000  -0.2500000), wk =   0.0034722
        k(   58) = (   0.0833333   0.0000000  -0.1250000), wk =   0.0034722
        k(   59) = (   0.0833333   0.0833333   0.0000000), wk =   0.0034722
        k(   60) = (   0.0833333   0.0833333   0.1250000), wk =   0.0034722
        k(   61) = (   0.0833333   0.0833333   0.2500000), wk =   0.0034722
        k(   62) = (   0.0833333   0.0833333   0.3750000), wk =   0.0034722
        k(   63) = (   0.0833333   0.0833333  -0.5000000), wk =   0.0034722
        k(   64) = (   0.0833333   0.0833333  -0.3750000), wk =   0.0034722
        k(   65) = (   0.0833333   0.0833333  -0.2500000), wk =   0.0034722
        k(   66) = (   0.0833333   0.0833333  -0.1250000), wk =   0.0034722
        k(   67) = (   0.0833333   0.1666667  -0.0000000), wk =   0.0034722
        k(   68) = (   0.0833333   0.1666667   0.1250000), wk =   0.0034722
        k(   69) = (   0.0833333   0.1666667   0.2500000), wk =   0.0034722
        k(   70) = (   0.0833333   0.1666667   0.3750000), wk =   0.0034722
        k(   71) = (   0.0833333   0.1666667  -0.5000000), wk =   0.0034722
        k(   72) = (   0.0833333   0.1666667  -0.3750000), wk =   0.0034722
        k(   73) = (   0.0833333   0.1666667  -0.2500000), wk =   0.0034722
        k(   74) = (   0.0833333   0.1666667  -0.1250000), wk =   0.0034722
        k(   75) = (   0.0833333   0.2500000  -0.0000000), wk =   0.0034722
        k(   76) = (   0.0833333   0.2500000   0.1250000), wk =   0.0034722
        k(   77) = (   0.0833333   0.2500000   0.2500000), wk =   0.0034722
        k(   78) = (   0.0833333   0.2500000   0.3750000), wk =   0.0034722
        k(   79) = (   0.0833333   0.2500000  -0.5000000), wk =   0.0034722
        k(   80) = (   0.0833333   0.2500000  -0.3750000), wk =   0.0034722
        k(   81) = (   0.0833333   0.2500000  -0.2500000), wk =   0.0034722
        k(   82) = (   0.0833333   0.2500000  -0.1250000), wk =   0.0034722
        k(   83) = (   0.0833333   0.3333333   0.0000000), wk =   0.0034722
        k(   84) = (   0.0833333   0.3333333   0.1250000), wk =   0.0034722
        k(   85) = (   0.0833333   0.3333333   0.2500000), wk =   0.0034722
        k(   86) = (   0.0833333   0.3333333   0.3750000), wk =   0.0034722
        k(   87) = (   0.0833333   0.3333333  -0.5000000), wk =   0.0034722
        k(   88) = (   0.0833333   0.3333333  -0.3750000), wk =   0.0034722
        k(   89) = (   0.0833333   0.3333333  -0.2500000), wk =   0.0034722
        k(   90) = (   0.0833333   0.3333333  -0.1250000), wk =   0.0034722
        k(   91) = (   0.0833333   0.4166667   0.0000000), wk =   0.0034722
        k(   92) = (   0.0833333   0.4166667   0.1250000), wk =   0.0034722
        k(   93) = (   0.0833333   0.4166667   0.2500000), wk =   0.0034722
        k(   94) = (   0.0833333   0.4166667   0.3750000), wk =   0.0034722
        k(   95) = (   0.0833333   0.4166667  -0.5000000), wk =   0.0034722
        k(   96) = (   0.0833333   0.4166667  -0.3750000), wk =   0.0034722
        k(   97) = (   0.0833333   0.4166667  -0.2500000), wk =   0.0034722
        k(   98) = (   0.0833333   0.4166667  -0.1250000), wk =   0.0034722
        k(   99) = (   0.0833333  -0.5000000   0.0000000), wk =   0.0034722
        k(  100) = (   0.0833333  -0.5000000   0.1250000), wk =   0.0034722
        k(  101) = (   0.0833333  -0.5000000   0.2500000), wk =   0.0034722
        k(  102) = (   0.0833333  -0.5000000   0.3750000), wk =   0.0034722
        k(  103) = (   0.0833333  -0.5000000  -0.5000000), wk =   0.0034722
        k(  104) = (   0.0833333  -0.5000000  -0.3750000), wk =   0.0034722
        k(  105) = (   0.0833333  -0.5000000  -0.2500000), wk =   0.0034722
        k(  106) = (   0.0833333  -0.5000000  -0.1250000), wk =   0.0034722
        k(  107) = (   0.0833333  -0.4166667   0.0000000), wk =   0.0034722
        k(  108) = (   0.0833333  -0.4166667   0.1250000), wk =   0.0034722
        k(  109) = (   0.0833333  -0.4166667   0.2500000), wk =   0.0034722
        k(  110) = (   0.0833333  -0.4166667   0.3750000), wk =   0.0034722
        k(  111) = (   0.0833333  -0.4166667  -0.5000000), wk =   0.0034722
        k(  112) = (   0.0833333  -0.4166667  -0.3750000), wk =   0.0034722
        k(  113) = (   0.0833333  -0.4166667  -0.2500000), wk =   0.0034722
        k(  114) = (   0.0833333  -0.4166667  -0.1250000), wk =   0.0034722
        k(  115) = (   0.0833333  -0.3333333   0.0000000), wk =   0.0034722
        k(  116) = (   0.0833333  -0.3333333   0.1250000), wk =   0.0034722
        k(  117) = (   0.0833333  -0.3333333   0.2500000), wk =   0.0034722
        k(  118) = (   0.0833333  -0.3333333   0.3750000), wk =   0.0034722
        k(  119) = (   0.0833333  -0.3333333  -0.5000000), wk =   0.0034722
        k(  120) = (   0.0833333  -0.3333333  -0.3750000), wk =   0.0034722
        k(  121) = (   0.0833333  -0.3333333  -0.2500000), wk =   0.0034722
        k(  122) = (   0.0833333  -0.3333333  -0.1250000), wk =   0.0034722
        k(  123) = (   0.0833333  -0.2500000   0.0000000), wk =   0.0034722
        k(  124) = (   0.0833333  -0.2500000   0.1250000), wk =   0.0034722
        k(  125) = (   0.0833333  -0.2500000   0.2500000), wk =   0.0034722
        k(  126) = (   0.0833333  -0.2500000   0.3750000), wk =   0.0034722
        k(  127) = (   0.0833333  -0.2500000  -0.5000000), wk =   0.0034722
        k(  128) = (   0.0833333  -0.2500000  -0.3750000), wk =   0.0034722
        k(  129) = (   0.0833333  -0.2500000  -0.2500000), wk =   0.0034722
        k(  130) = (   0.0833333  -0.2500000  -0.1250000), wk =   0.0034722
        k(  131) = (   0.0833333  -0.1666667  -0.0000000), wk =   0.0034722
        k(  132) = (   0.0833333  -0.1666667   0.1250000), wk =   0.0034722
        k(  133) = (   0.0833333  -0.1666667   0.2500000), wk =   0.0034722
        k(  134) = (   0.0833333  -0.1666667   0.3750000), wk =   0.0034722
        k(  135) = (   0.0833333  -0.1666667  -0.5000000), wk =   0.0034722
        k(  136) = (   0.0833333  -0.1666667  -0.3750000), wk =   0.0034722
        k(  137) = (   0.0833333  -0.1666667  -0.2500000), wk =   0.0034722
        k(  138) = (   0.0833333  -0.1666667  -0.1250000), wk =   0.0034722
        k(  139) = (   0.0833333  -0.0833333  -0.0000000), wk =   0.0034722
        k(  140) = (   0.0833333  -0.0833333   0.1250000), wk =   0.0034722
        k(  141) = (   0.0833333  -0.0833333   0.2500000), wk =   0.0034722
        k(  142) = (   0.0833333  -0.0833333   0.3750000), wk =   0.0034722
        k(  143) = (   0.0833333  -0.0833333  -0.5000000), wk =   0.0034722
        k(  144) = (   0.0833333  -0.0833333  -0.3750000), wk =   0.0034722
        k(  145) = (   0.0833333  -0.0833333  -0.2500000), wk =   0.0034722
        k(  146) = (   0.0833333  -0.0833333  -0.1250000), wk =   0.0034722
        k(  147) = (   0.1666667   0.0000000  -0.0000000), wk =   0.0034722
        k(  148) = (   0.1666667   0.0000000   0.1250000), wk =   0.0034722
        k(  149) = (   0.1666667   0.0000000   0.2500000), wk =   0.0034722
        k(  150) = (   0.1666667   0.0000000   0.3750000), wk =   0.0034722
        k(  151) = (   0.1666667  -0.0000000  -0.5000000), wk =   0.0034722
        k(  152) = (   0.1666667   0.0000000  -0.3750000), wk =   0.0034722
        k(  153) = (   0.1666667   0.0000000  -0.2500000), wk =   0.0034722
        k(  154) = (   0.1666667   0.0000000  -0.1250000), wk =   0.0034722
        k(  155) = (   0.1666667   0.0833333  -0.0000000), wk =   0.0034722
        k(  156) = (   0.1666667   0.0833333   0.1250000), wk =   0.0034722
        k(  157) = (   0.1666667   0.0833333   0.2500000), wk =   0.0034722
        k(  158) = (   0.1666667   0.0833333   0.3750000), wk =   0.0034722
        k(  159) = (   0.1666667   0.0833333  -0.5000000), wk =   0.0034722
        k(  160) = (   0.1666667   0.0833333  -0.3750000), wk =   0.0034722
        k(  161) = (   0.1666667   0.0833333  -0.2500000), wk =   0.0034722
        k(  162) = (   0.1666667   0.0833333  -0.1250000), wk =   0.0034722
        k(  163) = (   0.1666667   0.1666667   0.0000000), wk =   0.0034722
        k(  164) = (   0.1666667   0.1666667   0.1250000), wk =   0.0034722
        k(  165) = (   0.1666667   0.1666667   0.2500000), wk =   0.0034722
        k(  166) = (   0.1666667   0.1666667   0.3750000), wk =   0.0034722
        k(  167) = (   0.1666667   0.1666667  -0.5000000), wk =   0.0034722
        k(  168) = (   0.1666667   0.1666667  -0.3750000), wk =   0.0034722
        k(  169) = (   0.1666667   0.1666667  -0.2500000), wk =   0.0034722
        k(  170) = (   0.1666667   0.1666667  -0.1250000), wk =   0.0034722
        k(  171) = (   0.1666667   0.2500000   0.0000000), wk =   0.0034722
        k(  172) = (   0.1666667   0.2500000   0.1250000), wk =   0.0034722
        k(  173) = (   0.1666667   0.2500000   0.2500000), wk =   0.0034722
        k(  174) = (   0.1666667   0.2500000   0.3750000), wk =   0.0034722
        k(  175) = (   0.1666667   0.2500000  -0.5000000), wk =   0.0034722
        k(  176) = (   0.1666667   0.2500000  -0.3750000), wk =   0.0034722
        k(  177) = (   0.1666667   0.2500000  -0.2500000), wk =   0.0034722
        k(  178) = (   0.1666667   0.2500000  -0.1250000), wk =   0.0034722
        k(  179) = (   0.1666667   0.3333333  -0.0000000), wk =   0.0034722
        k(  180) = (   0.1666667   0.3333333   0.1250000), wk =   0.0034722
        k(  181) = (   0.1666667   0.3333333   0.2500000), wk =   0.0034722
        k(  182) = (   0.1666667   0.3333333   0.3750000), wk =   0.0034722
        k(  183) = (   0.1666667   0.3333333  -0.5000000), wk =   0.0034722
        k(  184) = (   0.1666667   0.3333333  -0.3750000), wk =   0.0034722
        k(  185) = (   0.1666667   0.3333333  -0.2500000), wk =   0.0034722
        k(  186) = (   0.1666667   0.3333333  -0.1250000), wk =   0.0034722
        k(  187) = (   0.1666667   0.4166667   0.0000000), wk =   0.0034722
        k(  188) = (   0.1666667   0.4166667   0.1250000), wk =   0.0034722
        k(  189) = (   0.1666667   0.4166667   0.2500000), wk =   0.0034722
        k(  190) = (   0.1666667   0.4166667   0.3750000), wk =   0.0034722
        k(  191) = (   0.1666667   0.4166667  -0.5000000), wk =   0.0034722
        k(  192) = (   0.1666667   0.4166667  -0.3750000), wk =   0.0034722
        k(  193) = (   0.1666667   0.4166667  -0.2500000), wk =   0.0034722
        k(  194) = (   0.1666667   0.4166667  -0.1250000), wk =   0.0034722
        k(  195) = (   0.1666667  -0.5000000   0.0000000), wk =   0.0034722
        k(  196) = (   0.1666667  -0.5000000   0.1250000), wk =   0.0034722
        k(  197) = (   0.1666667  -0.5000000   0.2500000), wk =   0.0034722
        k(  198) = (   0.1666667  -0.5000000   0.3750000), wk =   0.0034722
        k(  199) = (   0.1666667  -0.5000000  -0.5000000), wk =   0.0034722
        k(  200) = (   0.1666667  -0.5000000  -0.3750000), wk =   0.0034722
        k(  201) = (   0.1666667  -0.5000000  -0.2500000), wk =   0.0034722
        k(  202) = (   0.1666667  -0.5000000  -0.1250000), wk =   0.0034722
        k(  203) = (   0.1666667  -0.4166667  -0.0000000), wk =   0.0034722
        k(  204) = (   0.1666667  -0.4166667   0.1250000), wk =   0.0034722
        k(  205) = (   0.1666667  -0.4166667   0.2500000), wk =   0.0034722
        k(  206) = (   0.1666667  -0.4166667   0.3750000), wk =   0.0034722
        k(  207) = (   0.1666667  -0.4166667  -0.5000000), wk =   0.0034722
        k(  208) = (   0.1666667  -0.4166667  -0.3750000), wk =   0.0034722
        k(  209) = (   0.1666667  -0.4166667  -0.2500000), wk =   0.0034722
        k(  210) = (   0.1666667  -0.4166667  -0.1250000), wk =   0.0034722
        k(  211) = (   0.1666667  -0.3333333   0.0000000), wk =   0.0034722
        k(  212) = (   0.1666667  -0.3333333   0.1250000), wk =   0.0034722
        k(  213) = (   0.1666667  -0.3333333   0.2500000), wk =   0.0034722
        k(  214) = (   0.1666667  -0.3333333   0.3750000), wk =   0.0034722
        k(  215) = (   0.1666667  -0.3333333  -0.5000000), wk =   0.0034722
        k(  216) = (   0.1666667  -0.3333333  -0.3750000), wk =   0.0034722
        k(  217) = (   0.1666667  -0.3333333  -0.2500000), wk =   0.0034722
        k(  218) = (   0.1666667  -0.3333333  -0.1250000), wk =   0.0034722
        k(  219) = (   0.1666667  -0.2500000  -0.0000000), wk =   0.0034722
        k(  220) = (   0.1666667  -0.2500000   0.1250000), wk =   0.0034722
        k(  221) = (   0.1666667  -0.2500000   0.2500000), wk =   0.0034722
        k(  222) = (   0.1666667  -0.2500000   0.3750000), wk =   0.0034722
        k(  223) = (   0.1666667  -0.2500000  -0.5000000), wk =   0.0034722
        k(  224) = (   0.1666667  -0.2500000  -0.3750000), wk =   0.0034722
        k(  225) = (   0.1666667  -0.2500000  -0.2500000), wk =   0.0034722
        k(  226) = (   0.1666667  -0.2500000  -0.1250000), wk =   0.0034722
        k(  227) = (   0.1666667  -0.1666667  -0.0000000), wk =   0.0034722
        k(  228) = (   0.1666667  -0.1666667   0.1250000), wk =   0.0034722
        k(  229) = (   0.1666667  -0.1666667   0.2500000), wk =   0.0034722
        k(  230) = (   0.1666667  -0.1666667   0.3750000), wk =   0.0034722
        k(  231) = (   0.1666667  -0.1666667  -0.5000000), wk =   0.0034722
        k(  232) = (   0.1666667  -0.1666667  -0.3750000), wk =   0.0034722
        k(  233) = (   0.1666667  -0.1666667  -0.2500000), wk =   0.0034722
        k(  234) = (   0.1666667  -0.1666667  -0.1250000), wk =   0.0034722
        k(  235) = (   0.1666667  -0.0833333  -0.0000000), wk =   0.0034722
        k(  236) = (   0.1666667  -0.0833333   0.1250000), wk =   0.0034722
        k(  237) = (   0.1666667  -0.0833333   0.2500000), wk =   0.0034722
        k(  238) = (   0.1666667  -0.0833333   0.3750000), wk =   0.0034722
        k(  239) = (   0.1666667  -0.0833333  -0.5000000), wk =   0.0034722
        k(  240) = (   0.1666667  -0.0833333  -0.3750000), wk =   0.0034722
        k(  241) = (   0.1666667  -0.0833333  -0.2500000), wk =   0.0034722
        k(  242) = (   0.1666667  -0.0833333  -0.1250000), wk =   0.0034722
        k(  243) = (   0.2500000   0.0000000  -0.0000000), wk =   0.0034722
        k(  244) = (   0.2500000   0.0000000   0.1250000), wk =   0.0034722
        k(  245) = (   0.2500000   0.0000000   0.2500000), wk =   0.0034722
        k(  246) = (   0.2500000   0.0000000   0.3750000), wk =   0.0034722
        k(  247) = (   0.2500000  -0.0000000  -0.5000000), wk =   0.0034722
        k(  248) = (   0.2500000  -0.0000000  -0.3750000), wk =   0.0034722
        k(  249) = (   0.2500000   0.0000000  -0.2500000), wk =   0.0034722
        k(  250) = (   0.2500000   0.0000000  -0.1250000), wk =   0.0034722
        k(  251) = (   0.2500000   0.0833333  -0.0000000), wk =   0.0034722
        k(  252) = (   0.2500000   0.0833333   0.1250000), wk =   0.0034722
        k(  253) = (   0.2500000   0.0833333   0.2500000), wk =   0.0034722
        k(  254) = (   0.2500000   0.0833333   0.3750000), wk =   0.0034722
        k(  255) = (   0.2500000   0.0833333  -0.5000000), wk =   0.0034722
        k(  256) = (   0.2500000   0.0833333  -0.3750000), wk =   0.0034722
        k(  257) = (   0.2500000   0.0833333  -0.2500000), wk =   0.0034722
        k(  258) = (   0.2500000   0.0833333  -0.1250000), wk =   0.0034722
        k(  259) = (   0.2500000   0.1666667   0.0000000), wk =   0.0034722
        k(  260) = (   0.2500000   0.1666667   0.1250000), wk =   0.0034722
        k(  261) = (   0.2500000   0.1666667   0.2500000), wk =   0.0034722
        k(  262) = (   0.2500000   0.1666667   0.3750000), wk =   0.0034722
        k(  263) = (   0.2500000   0.1666667  -0.5000000), wk =   0.0034722
        k(  264) = (   0.2500000   0.1666667  -0.3750000), wk =   0.0034722
        k(  265) = (   0.2500000   0.1666667  -0.2500000), wk =   0.0034722
        k(  266) = (   0.2500000   0.1666667  -0.1250000), wk =   0.0034722
        k(  267) = (   0.2500000   0.2500000  -0.0000000), wk =   0.0034722
        k(  268) = (   0.2500000   0.2500000   0.1250000), wk =   0.0034722
        k(  269) = (   0.2500000   0.2500000   0.2500000), wk =   0.0034722
        k(  270) = (   0.2500000   0.2500000   0.3750000), wk =   0.0034722
        k(  271) = (   0.2500000   0.2500000  -0.5000000), wk =   0.0034722
        k(  272) = (   0.2500000   0.2500000  -0.3750000), wk =   0.0034722
        k(  273) = (   0.2500000   0.2500000  -0.2500000), wk =   0.0034722
        k(  274) = (   0.2500000   0.2500000  -0.1250000), wk =   0.0034722
        k(  275) = (   0.2500000   0.3333333  -0.0000000), wk =   0.0034722
        k(  276) = (   0.2500000   0.3333333   0.1250000), wk =   0.0034722
        k(  277) = (   0.2500000   0.3333333   0.2500000), wk =   0.0034722
        k(  278) = (   0.2500000   0.3333333   0.3750000), wk =   0.0034722
        k(  279) = (   0.2500000   0.3333333  -0.5000000), wk =   0.0034722
        k(  280) = (   0.2500000   0.3333333  -0.3750000), wk =   0.0034722
        k(  281) = (   0.2500000   0.3333333  -0.2500000), wk =   0.0034722
        k(  282) = (   0.2500000   0.3333333  -0.1250000), wk =   0.0034722
        k(  283) = (   0.2500000   0.4166667   0.0000000), wk =   0.0034722
        k(  284) = (   0.2500000   0.4166667   0.1250000), wk =   0.0034722
        k(  285) = (   0.2500000   0.4166667   0.2500000), wk =   0.0034722
        k(  286) = (   0.2500000   0.4166667   0.3750000), wk =   0.0034722
        k(  287) = (   0.2500000   0.4166667  -0.5000000), wk =   0.0034722
        k(  288) = (   0.2500000   0.4166667  -0.3750000), wk =   0.0034722
        k(  289) = (   0.2500000   0.4166667  -0.2500000), wk =   0.0034722
        k(  290) = (   0.2500000   0.4166667  -0.1250000), wk =   0.0034722
        k(  291) = (   0.2500000  -0.5000000  -0.0000000), wk =   0.0034722
        k(  292) = (   0.2500000  -0.5000000   0.1250000), wk =   0.0034722
        k(  293) = (   0.2500000  -0.5000000   0.2500000), wk =   0.0034722
        k(  294) = (   0.2500000  -0.5000000   0.3750000), wk =   0.0034722
        k(  295) = (   0.2500000  -0.5000000  -0.5000000), wk =   0.0034722
        k(  296) = (   0.2500000  -0.5000000  -0.3750000), wk =   0.0034722
        k(  297) = (   0.2500000  -0.5000000  -0.2500000), wk =   0.0034722
        k(  298) = (   0.2500000  -0.5000000  -0.1250000), wk =   0.0034722
        k(  299) = (   0.2500000  -0.4166667  -0.0000000), wk =   0.0034722
        k(  300) = (   0.2500000  -0.4166667   0.1250000), wk =   0.0034722
        k(  301) = (   0.2500000  -0.4166667   0.2500000), wk =   0.0034722
        k(  302) = (   0.2500000  -0.4166667   0.3750000), wk =   0.0034722
        k(  303) = (   0.2500000  -0.4166667  -0.5000000), wk =   0.0034722
        k(  304) = (   0.2500000  -0.4166667  -0.3750000), wk =   0.0034722
        k(  305) = (   0.2500000  -0.4166667  -0.2500000), wk =   0.0034722
        k(  306) = (   0.2500000  -0.4166667  -0.1250000), wk =   0.0034722
        k(  307) = (   0.2500000  -0.3333333  -0.0000000), wk =   0.0034722
        k(  308) = (   0.2500000  -0.3333333   0.1250000), wk =   0.0034722
        k(  309) = (   0.2500000  -0.3333333   0.2500000), wk =   0.0034722
        k(  310) = (   0.2500000  -0.3333333   0.3750000), wk =   0.0034722
        k(  311) = (   0.2500000  -0.3333333  -0.5000000), wk =   0.0034722
        k(  312) = (   0.2500000  -0.3333333  -0.3750000), wk =   0.0034722
        k(  313) = (   0.2500000  -0.3333333  -0.2500000), wk =   0.0034722
        k(  314) = (   0.2500000  -0.3333333  -0.1250000), wk =   0.0034722
        k(  315) = (   0.2500000  -0.2500000   0.0000000), wk =   0.0034722
        k(  316) = (   0.2500000  -0.2500000   0.1250000), wk =   0.0034722
        k(  317) = (   0.2500000  -0.2500000   0.2500000), wk =   0.0034722
        k(  318) = (   0.2500000  -0.2500000   0.3750000), wk =   0.0034722
        k(  319) = (   0.2500000  -0.2500000  -0.5000000), wk =   0.0034722
        k(  320) = (   0.2500000  -0.2500000  -0.3750000), wk =   0.0034722
        k(  321) = (   0.2500000  -0.2500000  -0.2500000), wk =   0.0034722
        k(  322) = (   0.2500000  -0.2500000  -0.1250000), wk =   0.0034722
        k(  323) = (   0.2500000  -0.1666667   0.0000000), wk =   0.0034722
        k(  324) = (   0.2500000  -0.1666667   0.1250000), wk =   0.0034722
        k(  325) = (   0.2500000  -0.1666667   0.2500000), wk =   0.0034722
        k(  326) = (   0.2500000  -0.1666667   0.3750000), wk =   0.0034722
        k(  327) = (   0.2500000  -0.1666667  -0.5000000), wk =   0.0034722
        k(  328) = (   0.2500000  -0.1666667  -0.3750000), wk =   0.0034722
        k(  329) = (   0.2500000  -0.1666667  -0.2500000), wk =   0.0034722
        k(  330) = (   0.2500000  -0.1666667  -0.1250000), wk =   0.0034722
        k(  331) = (   0.2500000  -0.0833333  -0.0000000), wk =   0.0034722
        k(  332) = (   0.2500000  -0.0833333   0.1250000), wk =   0.0034722
        k(  333) = (   0.2500000  -0.0833333   0.2500000), wk =   0.0034722
        k(  334) = (   0.2500000  -0.0833333   0.3750000), wk =   0.0034722
        k(  335) = (   0.2500000  -0.0833333  -0.5000000), wk =   0.0034722
        k(  336) = (   0.2500000  -0.0833333  -0.3750000), wk =   0.0034722
        k(  337) = (   0.2500000  -0.0833333  -0.2500000), wk =   0.0034722
        k(  338) = (   0.2500000  -0.0833333  -0.1250000), wk =   0.0034722
        k(  339) = (   0.3333333   0.0000000  -0.0000000), wk =   0.0034722
        k(  340) = (   0.3333333   0.0000000   0.1250000), wk =   0.0034722
        k(  341) = (   0.3333333   0.0000000   0.2500000), wk =   0.0034722
        k(  342) = (   0.3333333   0.0000000   0.3750000), wk =   0.0034722
        k(  343) = (   0.3333333   0.0000000  -0.5000000), wk =   0.0034722
        k(  344) = (   0.3333333   0.0000000  -0.3750000), wk =   0.0034722
        k(  345) = (   0.3333333   0.0000000  -0.2500000), wk =   0.0034722
        k(  346) = (   0.3333333   0.0000000  -0.1250000), wk =   0.0034722
        k(  347) = (   0.3333333   0.0833333  -0.0000000), wk =   0.0034722
        k(  348) = (   0.3333333   0.0833333   0.1250000), wk =   0.0034722
        k(  349) = (   0.3333333   0.0833333   0.2500000), wk =   0.0034722
        k(  350) = (   0.3333333   0.0833333   0.3750000), wk =   0.0034722
        k(  351) = (   0.3333333   0.0833333  -0.5000000), wk =   0.0034722
        k(  352) = (   0.3333333   0.0833333  -0.3750000), wk =   0.0034722
        k(  353) = (   0.3333333   0.0833333  -0.2500000), wk =   0.0034722
        k(  354) = (   0.3333333   0.0833333  -0.1250000), wk =   0.0034722
        k(  355) = (   0.3333333   0.1666667  -0.0000000), wk =   0.0034722
        k(  356) = (   0.3333333   0.1666667   0.1250000), wk =   0.0034722
        k(  357) = (   0.3333333   0.1666667   0.2500000), wk =   0.0034722
        k(  358) = (   0.3333333   0.1666667   0.3750000), wk =   0.0034722
        k(  359) = (   0.3333333   0.1666667  -0.5000000), wk =   0.0034722
        k(  360) = (   0.3333333   0.1666667  -0.3750000), wk =   0.0034722
        k(  361) = (   0.3333333   0.1666667  -0.2500000), wk =   0.0034722
        k(  362) = (   0.3333333   0.1666667  -0.1250000), wk =   0.0034722
        k(  363) = (   0.3333333   0.2500000  -0.0000000), wk =   0.0034722
        k(  364) = (   0.3333333   0.2500000   0.1250000), wk =   0.0034722
        k(  365) = (   0.3333333   0.2500000   0.2500000), wk =   0.0034722
        k(  366) = (   0.3333333   0.2500000   0.3750000), wk =   0.0034722
        k(  367) = (   0.3333333   0.2500000  -0.5000000), wk =   0.0034722
        k(  368) = (   0.3333333   0.2500000  -0.3750000), wk =   0.0034722
        k(  369) = (   0.3333333   0.2500000  -0.2500000), wk =   0.0034722
        k(  370) = (   0.3333333   0.2500000  -0.1250000), wk =   0.0034722
[...]
     1.0000   1.0000   1.0000  -0.0080  -0.0000  -0.0000  -0.0000  -0.0000

          k =-0.5474-0.9021 0.1360 (  4013 PWs)   bands (ev):

   -22.1684 -22.1159  -5.8126  -5.4421  -3.8262  -3.3985  -3.1340  -2.8295
     3.7696   5.0708   6.5444   7.2366   9.5218  10.5563  11.9276  13.7722
    14.7168  15.7786  18.3309  21.2401  22.6189  23.1467  23.8753  24.6671

     occupation numbers 
     1.0000   1.0000   1.0000   1.0000   1.0000   1.0000   1.0000   1.0000
     1.0000   1.0000   1.0000   1.0000   1.0000   1.0000   1.0000   1.0000
     1.0000   1.0000   1.0000  -0.0000  -0.0000  -0.0000  -0.0000  -0.0000

          k =-0.5638-0.9115 0.2093 (  4018 PWs)   bands (ev):

   -22.1881 -22.0952  -6.0435  -5.4838  -3.6589  -3.2559  -3.0195  -2.6914
     3.1548   5.0973   6.4690   7.2233   9.9447  10.7628  11.4904  14.3071
    14.5811  15.3478  18.5864  21.8212  22.9721  23.3809  23.8536  24.3801

     occupation numbers 
     1.0000   1.0000   1.0000   1.0000   1.0000   1.0000   1.0000   1.0000
     1.0000   1.0000   1.0000   1.0000   1.0000   1.0000   1.0000   1.0000
     1.0000   1.0000   1.0000  -0.0000  -0.0000  -0.0000  -0.0000  -0.0000

          k =-0.5802-0.9210 0.2827 (  4016 PWs)   bands (ev):

   -22.2014 -22.0809  -6.2028  -5.5715  -3.4311  -3.3329  -2.7159  -2.5852
     2.7151   4.7250   6.5708   7.3648  10.2650  11.0455  11.1953  13.9901
    14.7227  15.0472  19.9336  21.8424  22.9932  23.4412  24.0719  24.1162

     occupation numbers 
     1.0000   1.0000   1.0000   1.0000   1.0000   1.0000   1.0000   1.0000
     1.0000   1.0000   1.0000   1.0000   1.0000   1.0000   1.0000   1.0000
     1.0000   1.0000   0.2555  -0.0000  -0.0000  -0.0000  -0.0000  -0.0000

          k =-0.4655-0.8547-0.2309 (  4018 PWs)   bands (ev):

   -22.2060 -22.0758  -6.2587  -5.6100  -3.3605  -3.3290  -2.6176  -2.5256
     2.5521   4.5519   6.5543   7.5060  10.3707  11.0731  11.2547  13.5363
    14.8286  15.1362  20.9768  22.2354  22.2464  23.5123  23.5748  23.9925

     occupation numbers 
     1.0000   1.0000   1.0000   1.0000   1.0000   1.0000   1.0000   1.0000
     1.0000   1.0000   1.0000   1.0000   1.0000   1.0000   1.0000   1.0000
     1.0000   1.0000  -0.0000  -0.0000  -0.0000  -0.0000  -0.0000  -0.0000

     the Fermi energy is    19.8922 ev

!    total energy              =    -185.66662580 Ry
     estimated scf accuracy    <          7.2E-11 Ry
     smearing contrib. (-TS)   =       0.00005125 Ry
     internal energy E=F+TS    =    -185.66667706 Ry

     The total energy is F=E-TS. E is the sum of the following terms:
     one-electron contribution =      34.71990738 Ry
     hartree contribution      =      12.82988884 Ry
     xc contribution           =     -52.55642442 Ry
     ewald contribution        =    -180.66004885 Ry

     convergence has been achieved in  12 iterations

     Forces acting on atoms (cartesian axes, Ry/au):

     atom    1 type  1   force =     0.00003832    0.00000088   -0.00001639
     atom    2 type  1   force =    -0.00002002   -0.00003231    0.00001600
     atom    3 type  2   force =    -0.00001716    0.00001273    0.00001849
     atom    4 type  2   force =    -0.00000312    0.00002227   -0.00001844
     atom    5 type  2   force =    -0.00004703   -0.00001555    0.00001560
     atom    6 type  2   force =     0.00003711    0.00003276   -0.00001575
     atom    7 type  2   force =     0.00003360   -0.00002713    0.00002979
     atom    8 type  2   force =     0.00000638   -0.00004322   -0.00002951
     atom    9 type  2   force =     0.00000736   -0.00000906   -0.00001285
     atom   10 type  2   force =     0.00000729    0.00000437    0.00000135
     atom   11 type  2   force =     0.00000282    0.00001185   -0.00001406
     atom   12 type  2   force =     0.00000449   -0.00001116    0.00001248
     atom   13 type  2   force =    -0.00000725   -0.00000449   -0.00000109
     atom   14 type  2   force =    -0.00001148    0.00000371    0.00001385
     atom   15 type  2   force =    -0.00001718    0.00002933   -0.00003528
     atom   16 type  2   force =     0.00001133   -0.00000724    0.00004200
     atom   17 type  2   force =    -0.00000684    0.00000676    0.00003057
     atom   18 type  2   force =    -0.00001626    0.00002988    0.00003530
     atom   19 type  2   force =     0.00000011   -0.00001330   -0.00004198
     atom   20 type  2   force =    -0.00000246    0.00000893   -0.00003010
     The non-local contrib.  to forces
     atom    1 type  1   force =     0.00113263    0.00064801    0.00793289
     atom    2 type  1   force =    -0.00112731   -0.00065724   -0.00793298
     atom    3 type  2   force =     0.00237019    0.00136809   -0.00448734
     atom    4 type  2   force =    -0.00236987   -0.00136867    0.00448733
     atom    5 type  2   force =    -0.00400832   -0.00231282   -0.00040160
     atom    6 type  2   force =     0.00400618    0.00231655    0.00040160
     atom    7 type  2   force =    -0.01372479   -0.00303621   -0.00805706
     atom    8 type  2   force =     0.00949211    0.01036750    0.00805698
     atom    9 type  2   force =    -0.00302497   -0.00174804   -0.00829226
     atom   10 type  2   force =    -0.00286845   -0.00165648    0.00012719
     atom   11 type  2   force =     0.01372090    0.00303079    0.00804759
     atom   12 type  2   force =     0.00302638    0.00174553    0.00829229
     atom   13 type  2   force =     0.00286880    0.00165586   -0.00012722
     atom   14 type  2   force =    -0.00948546   -0.01036679   -0.00804756
     atom   15 type  2   force =     0.00296778    0.00749617   -0.00169818
     atom   16 type  2   force =    -0.00026427   -0.00014270   -0.00790529
     atom   17 type  2   force =    -0.00295264   -0.00749750    0.00169745
     atom   18 type  2   force =    -0.00797527    0.00117633    0.00169937
     atom   19 type  2   force =     0.00025674    0.00015574    0.00790528
     atom   20 type  2   force =     0.00796882   -0.00119008   -0.00169862
     The ionic contribution  to forces
     atom    1 type  1   force =    -0.18802021   -0.10877753    0.98383403
     atom    2 type  1   force =     0.18819692    0.10847161   -0.98383685
     atom    3 type  2   force =    -0.05310534   -0.03054454    0.15559682
     atom    4 type  2   force =     0.05299836    0.03073025   -0.15559667
     atom    5 type  2   force =     0.05651384    0.03265737    0.02214742
     atom    6 type  2   force =    -0.05652161   -0.03264401   -0.02214780
     atom    7 type  2   force =     0.18139283    0.02884338    0.05997831
     atom    8 type  2   force =    -0.11568217   -0.14266844   -0.05997238
     atom    9 type  2   force =     0.00226063    0.00125455    0.24764679
     atom   10 type  2   force =     0.04243233    0.02450812    0.04665187
     atom   11 type  2   force =    -0.18130083   -0.02881862   -0.05982937
     atom   12 type  2   force =    -0.00221500   -0.00133194   -0.24764801
     atom   13 type  2   force =    -0.04243965   -0.02449511   -0.04665022
     atom   14 type  2   force =     0.11561397    0.14259921    0.05982472
     atom   15 type  2   force =    -0.03839171   -0.13526803    0.00208111
     atom   16 type  2   force =     0.05031143    0.02890471    0.10775795
     atom   17 type  2   force =     0.03806277    0.13534868   -0.00216894
     atom   18 type  2   force =     0.13633925   -0.03436538   -0.00209851
     atom   19 type  2   force =    -0.05020272   -0.02909472   -0.10775778
     atom   20 type  2   force =    -0.13624310    0.03469044    0.00218750
     The local contribution  to forces
     atom    1 type  1   force =     0.18695578    0.10814755   -0.98939762
     atom    2 type  1   force =    -0.18711948   -0.10786397    0.98940014
     atom    3 type  2   force =     0.05071732    0.02918878   -0.15108800
     atom    4 type  2   force =    -0.05063095   -0.02933892    0.15108796
     atom    5 type  2   force =    -0.05255308   -0.03036041   -0.02172800
     atom    6 type  2   force =     0.05255299    0.03036048    0.02172859
     atom    7 type  2   force =    -0.16763418   -0.02583423   -0.05189288
     atom    8 type  2   force =     0.10619636    0.13225759    0.05188679
     atom    9 type  2   force =     0.00077097    0.00048401   -0.23936447
     atom   10 type  2   force =    -0.03955681   -0.02284740   -0.04677656
     atom   11 type  2   force =     0.16758260    0.02579967    0.05176863
     atom   12 type  2   force =    -0.00080609   -0.00042430    0.23936503
     atom   13 type  2   force =     0.03956392    0.02283495    0.04677468
     atom   14 type  2   force =    -0.10613979   -0.13222851   -0.05176474
     atom   15 type  2   force =     0.03540644    0.12780069   -0.00041711
     atom   16 type  2   force =    -0.05003578   -0.02876921   -0.09980944
     atom   17 type  2   force =    -0.03511676   -0.12784399    0.00050148
     atom   18 type  2   force =    -0.12837977    0.03321888    0.00043385
     atom   19 type  2   force =     0.04994591    0.02892558    0.09980984
     atom   20 type  2   force =     0.12827123   -0.03349145   -0.00051787
     The core correction contribution to forces
     atom    1 type  1   force =    -0.00003627   -0.00002084   -0.00235253
     atom    2 type  1   force =     0.00003621    0.00002096    0.00235253
     atom    3 type  2   force =     0.00000000    0.00000000    0.00000000
     atom    4 type  2   force =     0.00000000    0.00000000    0.00000000
     atom    5 type  2   force =     0.00000000    0.00000000    0.00000000
     atom    6 type  2   force =     0.00000000    0.00000000    0.00000000
     atom    7 type  2   force =     0.00000000    0.00000000    0.00000000
     atom    8 type  2   force =     0.00000000    0.00000000    0.00000000
     atom    9 type  2   force =     0.00000000    0.00000000    0.00000000
     atom   10 type  2   force =     0.00000000    0.00000000    0.00000000
     atom   11 type  2   force =     0.00000000    0.00000000    0.00000000
     atom   12 type  2   force =     0.00000000    0.00000000    0.00000000
     atom   13 type  2   force =     0.00000000    0.00000000    0.00000000
     atom   14 type  2   force =     0.00000000    0.00000000    0.00000000
     atom   15 type  2   force =     0.00000000    0.00000000    0.00000000
     atom   16 type  2   force =     0.00000000    0.00000000    0.00000000
     atom   17 type  2   force =     0.00000000    0.00000000    0.00000000
     atom   18 type  2   force =     0.00000000    0.00000000    0.00000000
     atom   19 type  2   force =     0.00000000    0.00000000    0.00000000
     atom   20 type  2   force =     0.00000000    0.00000000    0.00000000
     The Hubbard contrib.    to forces
     atom    1 type  1   force =     0.00000000    0.00000000    0.00000000
     atom    2 type  1   force =     0.00000000    0.00000000    0.00000000
     atom    3 type  2   force =     0.00000000    0.00000000    0.00000000
     atom    4 type  2   force =     0.00000000    0.00000000    0.00000000
     atom    5 type  2   force =     0.00000000    0.00000000    0.00000000
     atom    6 type  2   force =     0.00000000    0.00000000    0.00000000
     atom    7 type  2   force =     0.00000000    0.00000000    0.00000000
     atom    8 type  2   force =     0.00000000    0.00000000    0.00000000
     atom    9 type  2   force =     0.00000000    0.00000000    0.00000000
     atom   10 type  2   force =     0.00000000    0.00000000    0.00000000
     atom   11 type  2   force =     0.00000000    0.00000000    0.00000000
     atom   12 type  2   force =     0.00000000    0.00000000    0.00000000
     atom   13 type  2   force =     0.00000000    0.00000000    0.00000000
     atom   14 type  2   force =     0.00000000    0.00000000    0.00000000
     atom   15 type  2   force =     0.00000000    0.00000000    0.00000000
     atom   16 type  2   force =     0.00000000    0.00000000    0.00000000
     atom   17 type  2   force =     0.00000000    0.00000000    0.00000000
     atom   18 type  2   force =     0.00000000    0.00000000    0.00000000
     atom   19 type  2   force =     0.00000000    0.00000000    0.00000000
     atom   20 type  2   force =     0.00000000    0.00000000    0.00000000
     The SCF correction term to forces
     atom    1 type  1   force =     0.00000638    0.00000368   -0.00003316
     atom    2 type  1   force =    -0.00000637   -0.00000367    0.00003316
     atom    3 type  2   force =     0.00000068    0.00000039   -0.00000299
     atom    4 type  2   force =    -0.00000066   -0.00000038    0.00000294
     atom    5 type  2   force =     0.00000053    0.00000031   -0.00000223
     atom    6 type  2   force =    -0.00000045   -0.00000026    0.00000185
     atom    7 type  2   force =    -0.00000027   -0.00000007    0.00000143
     atom    8 type  2   force =     0.00000008    0.00000013   -0.00000090
     atom    9 type  2   force =     0.00000073    0.00000042   -0.00000290
     atom   10 type  2   force =     0.00000021    0.00000012   -0.00000116
     atom   11 type  2   force =     0.00000015    0.00000001   -0.00000090
     atom   12 type  2   force =    -0.00000080   -0.00000046    0.00000317
     atom   13 type  2   force =    -0.00000033   -0.00000019    0.00000167
     atom   14 type  2   force =    -0.00000020   -0.00000020    0.00000143
     atom   15 type  2   force =     0.00000032    0.00000049   -0.00000111
     atom   16 type  2   force =    -0.00000005   -0.00000003   -0.00000121
     atom   17 type  2   force =    -0.00000020   -0.00000043    0.00000059
     atom   18 type  2   force =    -0.00000047    0.00000004    0.00000059
     atom   19 type  2   force =     0.00000018    0.00000010    0.00000068
     atom   20 type  2   force =     0.00000059    0.00000003   -0.00000111

     Total force =     0.000168     Total SCF correction =     0.000049
     SCF correction compared to forces is large: reduce conv_thr to get better values


     Computing stress (Cartesian axis) and pressure

          total   stress  (Ry/bohr**3)                   (kbar)     P=     2500.05
   0.01699411  -0.00000010   0.00000182         2499.92       -0.01        0.27
  -0.00000010   0.01699408   0.00000108           -0.01     2499.92        0.16
   0.00000182   0.00000108   0.01699686            0.27        0.16     2500.32

     kinetic stress (kbar)  26318.33    -26.05     15.85
                              -26.05  26348.38      9.15
                               15.85      9.15  26312.06

     local   stress (kbar)   -360.13    -49.33   -111.56
                              -49.33   -303.09    -64.43
                             -111.56    -64.43     80.38

     nonloc. stress (kbar)   7370.38      8.22    -11.43
                                8.22   7360.89     -6.60
                              -11.43     -6.60   7364.24

     hartree stress (kbar)   1943.72      6.52     36.53
                                6.52   1936.17     21.09
                               36.53     21.09   1804.07

     exc-cor stress (kbar)    869.14     -0.11      0.00
                               -0.11    869.27      0.00
                                0.00      0.00    870.16

     corecor stress (kbar)  -7082.41     -0.05      0.18
                               -0.05  -7082.35      0.10
                                0.18      0.10  -7082.14

     ewald   stress (kbar) -26559.12     60.79     70.69
                               60.79 -26629.37     40.83
                               70.69     40.83 -26848.45

     hubbard stress (kbar)      0.00      0.00      0.00
                                0.00      0.00      0.00
                                0.00      0.00      0.00

     DFT-D   stress (kbar)      0.00      0.00      0.00
                                0.00      0.00      0.00
                                0.00      0.00      0.00

     XDM     stress (kbar)      0.00      0.00      0.00
                                0.00      0.00      0.00
                                0.00      0.00      0.00

     dft-nl  stress (kbar)      0.00      0.00      0.00
                                0.00      0.00      0.00
                                0.00      0.00      0.00

     TS-vdW  stress (kbar)      0.00      0.00      0.00
                                0.00      0.00      0.00
                                0.00      0.00      0.00



     Writing output data file ./out/yh9.save/

     init_run     :     15.65s CPU     16.20s WALL (       1 calls)
     electrons    :    329.99s CPU    340.50s WALL (       1 calls)
     forces       :      4.50s CPU      4.67s WALL (       1 calls)
     stress       :      6.74s CPU      6.89s WALL (       1 calls)

     Called by init_run:
     wfcinit      :     14.61s CPU     15.09s WALL (       1 calls)
     wfcinit:atom :      0.10s CPU      0.10s WALL (     580 calls)
     wfcinit:wfcr :     13.87s CPU     14.34s WALL (     580 calls)
     potinit      :      0.35s CPU      0.36s WALL (       1 calls)
     hinit0       :      0.60s CPU      0.61s WALL (       1 calls)

     Called by electrons:
     c_bands      :    293.81s CPU    301.94s WALL (      13 calls)
     sum_band     :     35.32s CPU     37.24s WALL (      13 calls)
     v_of_rho     :      0.20s CPU      0.22s WALL (      13 calls)
     v_h          :      0.01s CPU      0.01s WALL (      13 calls)
     v_xc         :      0.22s CPU      0.24s WALL (      15 calls)
     newd         :      0.67s CPU      1.13s WALL (      13 calls)
     mix_rho      :      0.02s CPU      0.02s WALL (      13 calls)

     Called by c_bands:
     init_us_2    :      3.02s CPU      3.06s WALL (   16820 calls)
     cegterg      :    285.90s CPU    293.92s WALL (    7540 calls)

     Called by sum_band:
     sum_band:wei :      0.17s CPU      0.17s WALL (      13 calls)
     sum_band:loo :     34.49s CPU     35.95s WALL (      13 calls)
     sum_band:buf :      0.14s CPU      0.14s WALL (    7540 calls)
     sum_band:ini :      1.36s CPU      1.38s WALL (    7540 calls)
     sum_band:cal :     10.30s CPU     10.75s WALL (    7540 calls)
     sum_band:bec :      0.21s CPU      0.22s WALL (    7540 calls)
     addusdens    :      0.64s CPU      1.09s WALL (      13 calls)
     addusd:skk   :      0.01s CPU      0.01s WALL (      26 calls)
     addusd:dgemm :      0.08s CPU      0.37s WALL (      26 calls)
     addusd:qvan2 :      0.48s CPU      0.48s WALL (      26 calls)

     Called by *egterg:
     cdiaghg      :     20.17s CPU     20.36s WALL (   27335 calls)
     cegterg:over :     23.22s CPU     23.96s WALL (   20375 calls)
     cegterg:upda :     10.98s CPU     11.04s WALL (   20375 calls)
     cegterg:last :     24.14s CPU     24.21s WALL (   14428 calls)
     h_psi        :    177.53s CPU    184.47s WALL (   28495 calls)
     s_psi        :     28.22s CPU     28.40s WALL (   28495 calls)
     g_psi        :      1.05s CPU      1.05s WALL (   20375 calls)

     Called by h_psi:
     h_psi:calbec :     28.31s CPU     29.69s WALL (   28495 calls)
     vloc_psi     :    120.55s CPU    125.97s WALL (   28495 calls)
     add_vuspsi   :     28.21s CPU     28.35s WALL (   28495 calls)

     General routines
     calbec       :     42.71s CPU     44.69s WALL (   38935 calls)
     fft          :      0.13s CPU      0.16s WALL (     193 calls)
     ffts         :      0.01s CPU      0.01s WALL (      26 calls)
     fftw         :    129.18s CPU    134.96s WALL ( 1161790 calls)
     interpolate  :      0.01s CPU      0.01s WALL (      13 calls)

     Parallel routines
     fft_scatt_xy :     13.36s CPU     13.92s WALL ( 1162009 calls)
     fft_scatt_yz :     30.16s CPU     31.61s WALL ( 1162009 calls)

     PWSCF        :   5m58.09s CPU   6m10.51s WALL


   This run was terminated on:  12:44:59  31May2026            

=------------------------------------------------------------------------------=
   JOB DONE.
=------------------------------------------------------------------------------=
