
     Program PWSCF v.6.7MaX starts on  4Jun2026 at  2:40:21 

     This program is part of the open-source Quantum ESPRESSO suite
     for quantum simulation of materials; please cite
         "P. Giannozzi et al., J. Phys.:Condens. Matter 21 395502 (2009);
         "P. Giannozzi et al., J. Phys.:Condens. Matter 29 465901 (2017);
          URL http://www.quantum-espresso.org", 
     in publications or presentations arising from this work. More details at
     http://www.quantum-espresso.org/quote

     Parallel version (MPI), running on     9 processors

     MPI processes distributed on     1 nodes
     R & G space division:  proc/nbgrp/npool/nimage =       9
     Reading input from scf.in

     Current dimensions of program PWSCF are:
     Max number of different atomic species (ntypx) = 10
     Max number of k-points (npk) =  40000
     Max angular momentum in pseudopotentials (lmaxx) =  3
     file La.pbe-spfn-rrkjus_psl.1.0.0.UPF: wavefunction(s)  4F renormalized

     Subspace diagonalization in iterative solution of the eigenvalue problem:
     a serial algorithm will be used


     Parallelization info
     --------------------
     sticks:   dense  smooth     PW     G-vecs:    dense   smooth      PW
     Min         255     102     32                 8110     2054     364
     Max         256     103     33                 8113     2057     366
     Sum        2299     925    295                73001    18499    3287



     bravais-lattice index     =            0
     lattice parameter (alat)  =       6.4728  a.u.
     unit-cell volume          =     191.7640 (a.u.)^3
     number of atoms/cell      =           11
     number of atomic types    =            2
     number of electrons       =        21.00
     number of Kohn-Sham states=           15
     kinetic-energy cutoff     =      80.0000  Ry
     charge density cutoff     =     800.0000  Ry
     scf convergence threshold =      1.0E-10
     mixing beta               =       0.3000
     number of iterations used =            8  plain     mixing
     Exchange-correlation= PBE
                           (   1   4   3   4   0   0   0)

     celldm(1)=   6.472764  celldm(2)=   0.000000  celldm(3)=   0.000000
     celldm(4)=   0.000000  celldm(5)=   0.000000  celldm(6)=   0.000000

     crystal axes: (cart. coord. in units of alat)
               a(1) = (  -0.707104  -0.000012   0.707110 )  
               a(2) = (   0.000014   0.707110   0.707110 )  
               a(3) = (  -0.707104   0.707107  -0.000012 )  

     reciprocal axes: (cart. coord. in units 2 pi/alat)
               b(1) = ( -0.707101 -0.707086  0.707100 )  
               b(2) = (  0.707089  0.707098  0.707096 )  
               b(3) = ( -0.707104  0.707100 -0.707086 )  


     PseudoPot. # 1 for La read from file:
     ./pseudo/La.pbe-spfn-rrkjus_psl.1.0.0.UPF
     MD5 check sum: 6f6f801f4d09a463c95a106d4fc07072
     Pseudo is Ultrasoft + core correction, Zval = 11.0
     Generated using &quot;atomic&quot; code by A. Dal Corso  v.6.2.2
     Using radial grid of 1253 points,  8 beta functions with: 
                l(1) =   0
                l(2) =   0
                l(3) =   1
                l(4) =   1
                l(5) =   2
                l(6) =   2
                l(7) =   3
                l(8) =   3
     Q(r) pseudized with 0 coefficients 


     PseudoPot. # 2 for H  read from file:
     ./pseudo/H.pbe-rrkjus_psl.1.0.0.UPF
     MD5 check sum: 9e615844a0e642e0aee8526d0d0f65f7
     Pseudo is Ultrasoft, Zval =  1.0
     Generated using &quot;atomic&quot; code by A. Dal Corso  v.6.3MaX
     Using radial grid of  929 points,  2 beta functions with: 
                l(1) =   0
                l(2) =   0
     Q(r) pseudized with 0 coefficients 


     atomic species   valence    mass     pseudopotential
        La            11.00   138.90500     La( 1.00)
        H              1.00     1.00800     H ( 1.00)

     No symmetry found


                                    s                        frac. trans.

      isym =  1     identity                                     

 cryst.   s( 1) = (     1          0          0      )
                  (     0          1          0      )
                  (     0          0          1      )

 cart.    s( 1) = (  1.0000000 -0.0000000  0.0000000 )
                  ( -0.0000000  1.0000000  0.0000000 )
                  ( -0.0000000 -0.0000000  1.0000000 )


   Cartesian axes

     site n.     atom                  positions (alat units)
         1           La  tau(   1) = (  -0.0000000   0.0000000   0.0000000  )
         2           H   tau(   2) = (  -0.3535504   0.3535530   0.3535539  )
         3           H   tau(   3) = (  -1.0606431   1.0606510   1.0606537  )
         4           H   tau(   4) = (  -0.5364530   0.5364571   0.5364584  )
         5           H   tau(   5) = (  -0.8777405   0.8777470   0.8777491  )
         6           H   tau(   6) = (  -0.8777253   0.8777305   0.5364853  )
         7           H   tau(   7) = (  -0.5364682   0.5364735   0.8777222  )
         8           H   tau(   8) = (  -0.5364788   0.8777320   0.8777332  )
         9           H   tau(   9) = (  -0.8777147   0.5364721   0.5364743  )
        10           H   tau(  10) = (  -0.8777253   0.5364837   0.8777332  )
        11           H   tau(  11) = (  -0.5364682   0.8777203   0.5364744  )

   Crystallographic axes

     site n.     atom                  positions (cryst. coord.)
         1           La  tau(   1) = (  0.0000000  0.0000000  0.0000000  )
         2           H   tau(   2) = (  0.2500014  0.2500014  0.2500014  )
         3           H   tau(   3) = (  0.7499986  0.7499986  0.7499986  )
         4           H   tau(   4) = (  0.3793349  0.3793351  0.3793349  )
         5           H   tau(   5) = (  0.6206651  0.6206649  0.6206651  )
         6           H   tau(   6) = (  0.3793582  0.3793579  0.8619456  )
         7           H   tau(   7) = (  0.6206418  0.6206421  0.1380544  )
         8           H   tau(   8) = (  0.3793580  0.8619455  0.3793581  )
         9           H   tau(   9) = (  0.6206420  0.1380545  0.6206419  )
        10           H   tau(  10) = (  0.8619455  0.3793579  0.3793583  )
        11           H   tau(  11) = (  0.1380545  0.6206421  0.6206417  )

     number of k points=   868  Methfessel-Paxton smearing, width (Ry)=  0.0100
                       cart. coord. in units 2pi/alat
        k(    1) = (   0.0000000   0.0000000   0.0000000), wk =   0.0011574
        k(    2) = (  -0.0589254   0.0589250  -0.0589238), wk =   0.0023148
        k(    3) = (  -0.1178507   0.1178500  -0.1178477), wk =   0.0023148
        k(    4) = (  -0.1767761   0.1767751  -0.1767715), wk =   0.0023148
        k(    5) = (  -0.2357014   0.2357001  -0.2356954), wk =   0.0023148
        k(    6) = (  -0.2946268   0.2946251  -0.2946192), wk =   0.0023148
        k(    7) = (   0.3535522  -0.3535501   0.3535430), wk =   0.0011574
        k(    8) = (   0.0589241   0.0589248   0.0589246), wk =   0.0023148
        k(    9) = (  -0.0000013   0.1178498   0.0000008), wk =   0.0023148
        k(   10) = (  -0.0589266   0.1767749  -0.0589230), wk =   0.0023148
        k(   11) = (  -0.1178520   0.2356999  -0.1178469), wk =   0.0023148
        k(   12) = (  -0.1767774   0.2946249  -0.1767707), wk =   0.0023148
        k(   13) = (  -0.2357027   0.3535499  -0.2356946), wk =   0.0023148
        k(   14) = (   0.4124763  -0.2946253   0.4124677), wk =   0.0023148
        k(   15) = (   0.3535509  -0.2357003   0.3535438), wk =   0.0023148
        k(   16) = (   0.2946255  -0.1767753   0.2946200), wk =   0.0023148
        k(   17) = (   0.2357002  -0.1178502   0.2356961), wk =   0.0023148
        k(   18) = (   0.1767748  -0.0589252   0.1767723), wk =   0.0023148
        k(   19) = (   0.1178494  -0.0000002   0.1178485), wk =   0.0023148
        k(   20) = (   0.1178482   0.1178497   0.1178493), wk =   0.0023148
        k(   21) = (   0.0589228   0.1767747   0.0589254), wk =   0.0023148
        k(   22) = (  -0.0000026   0.2356997   0.0000016), wk =   0.0023148
        k(   23) = (  -0.0589279   0.2946247  -0.0589222), wk =   0.0023148
        k(   24) = (  -0.1178533   0.3535497  -0.1178461), wk =   0.0023148
        k(   25) = (  -0.1767786   0.4124748  -0.1767699), wk =   0.0023148
        k(   26) = (   0.4714003  -0.2357005   0.4713923), wk =   0.0023148
        k(   27) = (   0.4124750  -0.1767755   0.4124685), wk =   0.0023148
        k(   28) = (   0.3535496  -0.1178504   0.3535446), wk =   0.0023148
        k(   29) = (   0.2946242  -0.0589254   0.2946208), wk =   0.0023148
        k(   30) = (   0.2356989  -0.0000004   0.2356969), wk =   0.0023148
        k(   31) = (   0.1767735   0.0589246   0.1767731), wk =   0.0023148
        k(   32) = (   0.1767722   0.1767745   0.1767739), wk =   0.0023148
        k(   33) = (   0.1178469   0.2356995   0.1178501), wk =   0.0023148
        k(   34) = (   0.0589215   0.2946245   0.0589262), wk =   0.0023148
        k(   35) = (  -0.0000038   0.3535495   0.0000024), wk =   0.0023148
        k(   36) = (  -0.0589292   0.4124746  -0.0589215), wk =   0.0023148
        k(   37) = (  -0.1178546   0.4713996  -0.1178453), wk =   0.0023148
        k(   38) = (   0.5303244  -0.1767757   0.5303169), wk =   0.0023148
        k(   39) = (   0.4713991  -0.1178506   0.4713931), wk =   0.0023148
        k(   40) = (   0.4124737  -0.0589256   0.4124692), wk =   0.0023148
        k(   41) = (   0.3535483  -0.0000006   0.3535454), wk =   0.0023148
        k(   42) = (   0.2946230   0.0589244   0.2946216), wk =   0.0023148
        k(   43) = (   0.2356976   0.1178495   0.2356977), wk =   0.0023148
        k(   44) = (   0.2356963   0.2356993   0.2356985), wk =   0.0023148
        k(   45) = (   0.1767710   0.2946243   0.1767747), wk =   0.0023148
        k(   46) = (   0.1178456   0.3535494   0.1178509), wk =   0.0023148
        k(   47) = (   0.0589202   0.4124744   0.0589270), wk =   0.0023148
        k(   48) = (  -0.0000051   0.4713994   0.0000032), wk =   0.0023148
        k(   49) = (  -0.0589305   0.5303244  -0.0589207), wk =   0.0023148
        k(   50) = (   0.5892485  -0.1178508   0.5892416), wk =   0.0023148
        k(   51) = (   0.5303231  -0.0589258   0.5303177), wk =   0.0023148
        k(   52) = (   0.4713978  -0.0000008   0.4713939), wk =   0.0023148
        k(   53) = (   0.4124724   0.0589242   0.4124700), wk =   0.0023148
        k(   54) = (   0.3535470   0.1178493   0.3535462), wk =   0.0023148
        k(   55) = (   0.2946217   0.1767743   0.2946224), wk =   0.0023148
        k(   56) = (   0.2946204   0.2946241   0.2946232), wk =   0.0023148
        k(   57) = (   0.2356950   0.3535492   0.2356993), wk =   0.0023148
        k(   58) = (   0.1767697   0.4124742   0.1767755), wk =   0.0023148
        k(   59) = (   0.1178443   0.4713992   0.1178516), wk =   0.0023148
        k(   60) = (   0.0589190   0.5303242   0.0589278), wk =   0.0023148
        k(   61) = (  -0.0000064   0.5892492   0.0000040), wk =   0.0023148
        k(   62) = (   0.6481726  -0.0589260   0.6481662), wk =   0.0023148
        k(   63) = (   0.5892472  -0.0000010   0.5892423), wk =   0.0023148
        k(   64) = (   0.5303219   0.0589240   0.5303185), wk =   0.0023148
        k(   65) = (   0.4713965   0.1178491   0.4713947), wk =   0.0023148
        k(   66) = (   0.4124711   0.1767741   0.4124708), wk =   0.0023148
        k(   67) = (   0.3535458   0.2356991   0.3535470), wk =   0.0023148
        k(   68) = (  -0.3535445  -0.3535490  -0.3535478), wk =   0.0011574
        k(   69) = (  -0.4124698  -0.2946239  -0.4124716), wk =   0.0023148
        k(   70) = (  -0.4713952  -0.2356989  -0.4713955), wk =   0.0023148
        k(   71) = (  -0.5303206  -0.1767739  -0.5303193), wk =   0.0023148
        k(   72) = (  -0.5892459  -0.1178489  -0.5892431), wk =   0.0023148
        k(   73) = (  -0.6481713  -0.0589238  -0.6481670), wk =   0.0023148
        k(   74) = (   0.0000077  -0.7070991  -0.0000048), wk =   0.0011574
        k(   75) = (  -0.0589251  -0.0589238   0.0589250), wk =   0.0023148
        k(   76) = (  -0.1178504   0.0000012   0.0000012), wk =   0.0023148
        k(   77) = (  -0.1767758   0.0589262  -0.0589227), wk =   0.0023148
        k(   78) = (  -0.2357012   0.1178512  -0.1178465), wk =   0.0023148
        k(   79) = (  -0.2946265   0.1767763  -0.1767703), wk =   0.0023148
        k(   80) = (  -0.3535519   0.2357013  -0.2356942), wk =   0.0023148
        k(   81) = (   0.2946271  -0.4124740   0.4124680), wk =   0.0023148
        k(   82) = (   0.2357017  -0.3535489   0.3535442), wk =   0.0023148
        k(   83) = (   0.1767764  -0.2946239   0.2946204), wk =   0.0023148
        k(   84) = (   0.1178510  -0.2356989   0.2356965), wk =   0.0023148
        k(   85) = (   0.0589257  -0.1767739   0.1767727), wk =   0.0023148
        k(   86) = (   0.0000003  -0.1178489   0.1178489), wk =   0.0023148
        k(   87) = (  -0.0000010   0.0000010   0.1178497), wk =   0.0023148
        k(   88) = (  -0.0589264   0.0589260   0.0589258), wk =   0.0023148
        k(   89) = (  -0.1178517   0.1178510   0.0000020), wk =   0.0023148
        k(   90) = (  -0.1767771   0.1767761  -0.0589219), wk =   0.0023148
        k(   91) = (  -0.2357024   0.2357011  -0.1178457), wk =   0.0023148
        k(   92) = (  -0.2946278   0.2946261  -0.1767695), wk =   0.0023148
        k(   93) = (   0.3535512  -0.3535491   0.4713927), wk =   0.0023148
        k(   94) = (   0.2946258  -0.2946241   0.4124688), wk =   0.0023148
        k(   95) = (   0.2357005  -0.2356991   0.3535450), wk =   0.0023148
        k(   96) = (   0.1767751  -0.1767741   0.2946212), wk =   0.0023148
        k(   97) = (   0.1178497  -0.1178491   0.2356973), wk =   0.0023148
        k(   98) = (   0.0589244  -0.0589240   0.1767735), wk =   0.0023148
        k(   99) = (   0.0589231   0.0589258   0.1767743), wk =   0.0023148
        k(  100) = (  -0.0000023   0.1178508   0.1178504), wk =   0.0023148
        k(  101) = (  -0.0589276   0.1767759   0.0589266), wk =   0.0023148
        k(  102) = (  -0.1178530   0.2357009   0.0000028), wk =   0.0023148
        k(  103) = (  -0.1767784   0.2946259  -0.0589211), wk =   0.0023148
        k(  104) = (  -0.2357037   0.3535509  -0.1178449), wk =   0.0023148
        k(  105) = (   0.4124753  -0.2946243   0.5303173), wk =   0.0023148
        k(  106) = (   0.3535499  -0.2356993   0.4713935), wk =   0.0023148
        k(  107) = (   0.2946245  -0.1767743   0.4124696), wk =   0.0023148
        k(  108) = (   0.2356992  -0.1178493   0.3535458), wk =   0.0023148
        k(  109) = (   0.1767738  -0.0589242   0.2946220), wk =   0.0023148
        k(  110) = (   0.1178485   0.0000008   0.2356981), wk =   0.0023148
        k(  111) = (   0.1178472   0.1178506   0.2356989), wk =   0.0023148
        k(  112) = (   0.0589218   0.1767757   0.1767751), wk =   0.0023148
        k(  113) = (  -0.0000036   0.2357007   0.1178512), wk =   0.0023148
        k(  114) = (  -0.0589289   0.2946257   0.0589274), wk =   0.0023148
        k(  115) = (  -0.1178543   0.3535507   0.0000036), wk =   0.0023148
        k(  116) = (  -0.1767796   0.4124758  -0.0589203), wk =   0.0023148
        k(  117) = (   0.4713993  -0.2356995   0.5892419), wk =   0.0023148
        k(  118) = (   0.4124740  -0.1767745   0.5303181), wk =   0.0023148
        k(  119) = (   0.3535486  -0.1178494   0.4713943), wk =   0.0023148
        k(  120) = (   0.2946233  -0.0589244   0.4124704), wk =   0.0023148
        k(  121) = (   0.2356979   0.0000006   0.3535466), wk =   0.0023148
        k(  122) = (   0.1767725   0.0589256   0.2946228), wk =   0.0023148
        k(  123) = (   0.1767713   0.1767755   0.2946236), wk =   0.0023148
        k(  124) = (   0.1178459   0.2357005   0.2356997), wk =   0.0023148
        k(  125) = (   0.0589205   0.2946255   0.1767759), wk =   0.0023148
        k(  126) = (  -0.0000048   0.3535505   0.1178520), wk =   0.0023148
        k(  127) = (  -0.0589302   0.4124756   0.0589282), wk =   0.0023148
        k(  128) = (  -0.1178556   0.4714006   0.0000044), wk =   0.0023148
        k(  129) = (   0.5303234  -0.1767747   0.6481666), wk =   0.0023148
        k(  130) = (   0.4713981  -0.1178496   0.5892427), wk =   0.0023148
        k(  131) = (   0.4124727  -0.0589246   0.5303189), wk =   0.0023148
        k(  132) = (   0.3535473   0.0000004   0.4713951), wk =   0.0023148
        k(  133) = (   0.2946220   0.0589254   0.4124712), wk =   0.0023148
        k(  134) = (   0.2356966   0.1178504   0.3535474), wk =   0.0023148
        k(  135) = (   0.2356953   0.2357003   0.3535482), wk =   0.0023148
        k(  136) = (   0.1767700   0.2946253   0.2946243), wk =   0.0023148
        k(  137) = (   0.1178446   0.3535503   0.2357005), wk =   0.0023148
        k(  138) = (   0.0589192   0.4124754   0.1767767), wk =   0.0023148
        k(  139) = (  -0.0000061   0.4714004   0.1178528), wk =   0.0023148
        k(  140) = (  -0.0589315   0.5303254   0.0589290), wk =   0.0023148
        k(  141) = (   0.5892475  -0.1178498   0.7070912), wk =   0.0023148
        k(  142) = (   0.5303221  -0.0589248   0.6481674), wk =   0.0023148
        k(  143) = (   0.4713968   0.0000002   0.5892435), wk =   0.0023148
        k(  144) = (   0.4124714   0.0589252   0.5303197), wk =   0.0023148
        k(  145) = (   0.3535461   0.1178503   0.4713959), wk =   0.0023148
        k(  146) = (   0.2946207   0.1767753   0.4124720), wk =   0.0023148
        k(  147) = (  -0.4124696  -0.4124728  -0.2946228), wk =   0.0023148
        k(  148) = (  -0.4713949  -0.3535478  -0.3535466), wk =   0.0023148
        k(  149) = (  -0.5303203  -0.2946228  -0.4124704), wk =   0.0023148
        k(  150) = (  -0.5892456  -0.2356977  -0.4713943), wk =   0.0023148
        k(  151) = (  -0.6481710  -0.1767727  -0.5303181), wk =   0.0023148
        k(  152) = (  -0.7070964  -0.1178477  -0.5892420), wk =   0.0023148
        k(  153) = (  -0.0589174  -0.7660229   0.0589203), wk =   0.0023148
        k(  154) = (  -0.1178427  -0.7070979  -0.0000036), wk =   0.0023148
        k(  155) = (  -0.1767681  -0.6481729  -0.0589274), wk =   0.0023148
        k(  156) = (  -0.2356935  -0.5892479  -0.1178513), wk =   0.0023148
        k(  157) = (  -0.2946188  -0.5303228  -0.1767751), wk =   0.0023148
        k(  158) = (  -0.3535442  -0.4713978  -0.2356989), wk =   0.0023148
        k(  159) = (  -0.3535455  -0.3535480  -0.2356981), wk =   0.0023148
        k(  160) = (  -0.4124708  -0.2946229  -0.2946220), wk =   0.0023148
        k(  161) = (  -0.4713962  -0.2356979  -0.3535458), wk =   0.0023148
        k(  162) = (  -0.5303216  -0.1767729  -0.4124697), wk =   0.0023148
        k(  163) = (  -0.5892469  -0.1178479  -0.4713935), wk =   0.0023148
        k(  164) = (  -0.6481723  -0.0589229  -0.5303173), wk =   0.0023148
        k(  165) = (   0.0000067  -0.7070981   0.1178449), wk =   0.0023148
        k(  166) = (  -0.0589187  -0.6481731   0.0589210), wk =   0.0023148
        k(  167) = (  -0.1178440  -0.5892481  -0.0000028), wk =   0.0023148
        k(  168) = (  -0.1767694  -0.5303230  -0.0589266), wk =   0.0023148
        k(  169) = (  -0.2356948  -0.4713980  -0.1178505), wk =   0.0023148
        k(  170) = (  -0.2946201  -0.4124730  -0.1767743), wk =   0.0023148
        k(  171) = (  -0.2946214  -0.2946231  -0.1767735), wk =   0.0023148
        k(  172) = (  -0.3535468  -0.2356981  -0.2356973), wk =   0.0023148
        k(  173) = (  -0.4124721  -0.1767731  -0.2946212), wk =   0.0023148
        k(  174) = (  -0.4713975  -0.1178481  -0.3535450), wk =   0.0023148
        k(  175) = (  -0.5303228  -0.0589231  -0.4124689), wk =   0.0023148
        k(  176) = (  -0.5892482   0.0000020  -0.4713927), wk =   0.0023148
        k(  177) = (   0.0589308  -0.6481733   0.1767695), wk =   0.0023148
        k(  178) = (   0.0000054  -0.5892483   0.1178457), wk =   0.0023148
        k(  179) = (  -0.0589199  -0.5303232   0.0589218), wk =   0.0023148
        k(  180) = (  -0.1178453  -0.4713982  -0.0000020), wk =   0.0023148
        k(  181) = (  -0.1767707  -0.4124732  -0.0589258), wk =   0.0023148
        k(  182) = (  -0.2356960  -0.3535482  -0.1178497), wk =   0.0023148
        k(  183) = (  -0.2356973  -0.2356983  -0.1178489), wk =   0.0023148
        k(  184) = (  -0.2946227  -0.1767733  -0.1767727), wk =   0.0023148
        k(  185) = (  -0.3535480  -0.1178483  -0.2356965), wk =   0.0023148
        k(  186) = (  -0.4124734  -0.0589233  -0.2946204), wk =   0.0023148
        k(  187) = (  -0.4713988   0.0000018  -0.3535442), wk =   0.0023148
        k(  188) = (  -0.5303241   0.0589268  -0.4124681), wk =   0.0023148
        k(  189) = (   0.1178549  -0.5892485   0.2356942), wk =   0.0023148
        k(  190) = (   0.0589295  -0.5303234   0.1767703), wk =   0.0023148
        k(  191) = (   0.0000041  -0.4713984   0.1178465), wk =   0.0023148
        k(  192) = (  -0.0589212  -0.4124734   0.0589226), wk =   0.0023148
        k(  193) = (  -0.1178466  -0.3535484  -0.0000012), wk =   0.0023148
        k(  194) = (  -0.1767720  -0.2946233  -0.0589250), wk =   0.0023148
        k(  195) = (  -0.1767732  -0.1767735  -0.0589242), wk =   0.0023148
        k(  196) = (  -0.2356986  -0.1178485  -0.1178481), wk =   0.0023148
        k(  197) = (  -0.2946240  -0.0589234  -0.1767719), wk =   0.0023148
        k(  198) = (  -0.3535493   0.0000016  -0.2356958), wk =   0.0023148
        k(  199) = (  -0.4124747   0.0589266  -0.2946196), wk =   0.0023148
        k(  200) = (  -0.4714000   0.1178516  -0.3535434), wk =   0.0023148
        k(  201) = (   0.1767789  -0.5303236   0.2946188), wk =   0.0023148
        k(  202) = (   0.1178536  -0.4713986   0.2356949), wk =   0.0023148
        k(  203) = (   0.0589282  -0.4124736   0.1767711), wk =   0.0023148
        k(  204) = (   0.0000029  -0.3535486   0.1178473), wk =   0.0023148
        k(  205) = (  -0.0589225  -0.2946235   0.0589234), wk =   0.0023148
        k(  206) = (  -0.1178479  -0.2356985  -0.0000004), wk =   0.0023148
        k(  207) = (  -0.1178492  -0.1178487   0.0000004), wk =   0.0023148
        k(  208) = (  -0.1767745  -0.0589236  -0.0589234), wk =   0.0023148
        k(  209) = (  -0.2356999   0.0000014  -0.1178473), wk =   0.0023148
        k(  210) = (  -0.2946252   0.0589264  -0.1767711), wk =   0.0023148
        k(  211) = (  -0.3535506   0.1178514  -0.2356950), wk =   0.0023148
        k(  212) = (  -0.4124760   0.1767764  -0.2946188), wk =   0.0023148
        k(  213) = (   0.2357030  -0.4713988   0.3535434), wk =   0.0023148
        k(  214) = (   0.1767777  -0.4124738   0.2946196), wk =   0.0023148
        k(  215) = (   0.1178523  -0.3535488   0.2356957), wk =   0.0023148
        k(  216) = (   0.0589269  -0.2946237   0.1767719), wk =   0.0023148
        k(  217) = (   0.0000016  -0.2356987   0.1178481), wk =   0.0023148
        k(  218) = (  -0.0589238  -0.1767737   0.0589242), wk =   0.0023148
        k(  219) = (  -0.1178501  -0.1178477   0.1178500), wk =   0.0023148
        k(  220) = (  -0.1767755  -0.0589227   0.0589262), wk =   0.0023148
        k(  221) = (  -0.2357009   0.0000024   0.0000024), wk =   0.0023148
        k(  222) = (  -0.2946262   0.0589274  -0.0589215), wk =   0.0023148
        k(  223) = (  -0.3535516   0.1178524  -0.1178453), wk =   0.0023148
        k(  224) = (  -0.4124770   0.1767774  -0.1767691), wk =   0.0023148
        k(  225) = (   0.2357020  -0.4713978   0.4713931), wk =   0.0023148
        k(  226) = (   0.1767767  -0.4124728   0.4124692), wk =   0.0023148
        k(  227) = (   0.1178513  -0.3535478   0.3535454), wk =   0.0023148
        k(  228) = (   0.0589259  -0.2946227   0.2946216), wk =   0.0023148
        k(  229) = (   0.0000006  -0.2356977   0.2356977), wk =   0.0023148
        k(  230) = (  -0.0589248  -0.1767727   0.1767739), wk =   0.0023148
        k(  231) = (  -0.0589261  -0.0589228   0.1767747), wk =   0.0023148
        k(  232) = (  -0.1178514   0.0000022   0.1178508), wk =   0.0023148
        k(  233) = (  -0.1767768   0.0589272   0.0589270), wk =   0.0023148
        k(  234) = (  -0.2357021   0.1178522   0.0000032), wk =   0.0023148
        k(  235) = (  -0.2946275   0.1767772  -0.0589207), wk =   0.0023148
        k(  236) = (  -0.3535529   0.2357023  -0.1178445), wk =   0.0023148
        k(  237) = (   0.2946261  -0.4124730   0.5303177), wk =   0.0023148
        k(  238) = (   0.2357008  -0.3535480   0.4713939), wk =   0.0023148
        k(  239) = (   0.1767754  -0.2946229   0.4124700), wk =   0.0023148
        k(  240) = (   0.1178500  -0.2356979   0.3535462), wk =   0.0023148
        k(  241) = (   0.0589247  -0.1767729   0.2946224), wk =   0.0023148
        k(  242) = (  -0.0000007  -0.1178479   0.2356985), wk =   0.0023148
        k(  243) = (  -0.0000020   0.0000020   0.2356993), wk =   0.0023148
        k(  244) = (  -0.0589273   0.0589270   0.1767755), wk =   0.0023148
        k(  245) = (  -0.1178527   0.1178520   0.1178516), wk =   0.0023148
        k(  246) = (  -0.1767781   0.1767770   0.0589278), wk =   0.0023148
        k(  247) = (  -0.2357034   0.2357021   0.0000040), wk =   0.0023148
        k(  248) = (  -0.2946288   0.2946271  -0.0589199), wk =   0.0023148
        k(  249) = (   0.3535502  -0.3535482   0.5892423), wk =   0.0023148
        k(  250) = (   0.2946248  -0.2946231   0.5303185), wk =   0.0023148
        k(  251) = (   0.2356995  -0.2356981   0.4713947), wk =   0.0023148
        k(  252) = (   0.1767741  -0.1767731   0.4124708), wk =   0.0023148
        k(  253) = (   0.1178487  -0.1178481   0.3535470), wk =   0.0023148
        k(  254) = (   0.0589234  -0.0589230   0.2946231), wk =   0.0023148
        k(  255) = (   0.0589221   0.0589268   0.2946239), wk =   0.0023148
        k(  256) = (  -0.0000033   0.1178518   0.2357001), wk =   0.0023148
        k(  257) = (  -0.0589286   0.1767768   0.1767763), wk =   0.0023148
        k(  258) = (  -0.1178540   0.2357019   0.1178524), wk =   0.0023148
        k(  259) = (  -0.1767793   0.2946269   0.0589286), wk =   0.0023148
        k(  260) = (  -0.2357047   0.3535519   0.0000048), wk =   0.0023148
        k(  261) = (   0.4124743  -0.2946233   0.6481670), wk =   0.0023148
        k(  262) = (   0.3535489  -0.2356983   0.5892431), wk =   0.0023148
        k(  263) = (   0.2946236  -0.1767733   0.5303193), wk =   0.0023148
        k(  264) = (   0.2356982  -0.1178483   0.4713955), wk =   0.0023148
        k(  265) = (   0.1767728  -0.0589232   0.4124716), wk =   0.0023148
        k(  266) = (   0.1178475   0.0000018   0.3535478), wk =   0.0023148
        k(  267) = (   0.1178462   0.1178516   0.3535486), wk =   0.0023148
        k(  268) = (   0.0589208   0.1767767   0.2946247), wk =   0.0023148
        k(  269) = (  -0.0000045   0.2357017   0.2357009), wk =   0.0023148
        k(  270) = (  -0.0589299   0.2946267   0.1767771), wk =   0.0023148
        k(  271) = (  -0.1178553   0.3535517   0.1178532), wk =   0.0023148
        k(  272) = (  -0.1767806   0.4124767   0.0589294), wk =   0.0023148
        k(  273) = (   0.4713984  -0.2356985   0.7070916), wk =   0.0023148
        k(  274) = (   0.4124730  -0.1767735   0.6481678), wk =   0.0023148
        k(  275) = (   0.3535476  -0.1178485   0.5892439), wk =   0.0023148
        k(  276) = (   0.2946223  -0.0589234   0.5303201), wk =   0.0023148
        k(  277) = (   0.2356969   0.0000016   0.4713962), wk =   0.0023148
        k(  278) = (   0.1767715   0.0589266   0.4124724), wk =   0.0023148
        k(  279) = (   0.1767703   0.1767765   0.4124732), wk =   0.0023148
        k(  280) = (   0.1178449   0.2357015   0.3535494), wk =   0.0023148
        k(  281) = (   0.0589195   0.2946265   0.2946255), wk =   0.0023148
        k(  282) = (  -0.0000058   0.3535515   0.2357017), wk =   0.0023148
        k(  283) = (  -0.0589312   0.4124765   0.1767779), wk =   0.0023148
        k(  284) = (  -0.1178565   0.4714016   0.1178540), wk =   0.0023148
        k(  285) = (   0.5303224  -0.1767737   0.7660162), wk =   0.0023148
        k(  286) = (   0.4713971  -0.1178487   0.7070924), wk =   0.0023148
        k(  287) = (   0.4124717  -0.0589236   0.6481686), wk =   0.0023148
        k(  288) = (   0.3535464   0.0000014   0.5892447), wk =   0.0023148
        k(  289) = (   0.2946210   0.0589264   0.5303209), wk =   0.0023148
        k(  290) = (   0.2356956   0.1178514   0.4713970), wk =   0.0023148
        k(  291) = (  -0.4713946  -0.4713966  -0.2356977), wk =   0.0023148
        k(  292) = (  -0.5303200  -0.4124716  -0.2946216), wk =   0.0023148
        k(  293) = (  -0.5892453  -0.3535466  -0.3535454), wk =   0.0023148
        k(  294) = (  -0.6481707  -0.2946216  -0.4124693), wk =   0.0023148
        k(  295) = (  -0.7070961  -0.2356965  -0.4713931), wk =   0.0023148
        k(  296) = (  -0.7660214  -0.1767715  -0.5303169), wk =   0.0023148
        k(  297) = (  -0.1178425  -0.8249468   0.1178453), wk =   0.0023148
        k(  298) = (  -0.1767678  -0.7660217   0.0589214), wk =   0.0023148
        k(  299) = (  -0.2356932  -0.7070967  -0.0000024), wk =   0.0023148
        k(  300) = (  -0.2946185  -0.6481717  -0.0589262), wk =   0.0023148
        k(  301) = (  -0.3535439  -0.5892467  -0.1178501), wk =   0.0023148
        k(  302) = (  -0.4124693  -0.5303217  -0.1767739), wk =   0.0023148
        k(  303) = (  -0.4124705  -0.4124718  -0.1767731), wk =   0.0023148
        k(  304) = (  -0.4713959  -0.3535468  -0.2356970), wk =   0.0023148
        k(  305) = (  -0.5303213  -0.2946218  -0.2946208), wk =   0.0023148
        k(  306) = (  -0.5892466  -0.2356967  -0.3535446), wk =   0.0023148
        k(  307) = (  -0.6481720  -0.1767717  -0.4124685), wk =   0.0023148
        k(  308) = (  -0.7070974  -0.1178467  -0.4713923), wk =   0.0023148
        k(  309) = (  -0.0589184  -0.7660219   0.1767699), wk =   0.0023148
        k(  310) = (  -0.1178437  -0.7070969   0.1178461), wk =   0.0023148
        k(  311) = (  -0.1767691  -0.6481719   0.0589222), wk =   0.0023148
        k(  312) = (  -0.2356945  -0.5892469  -0.0000016), wk =   0.0023148
        k(  313) = (  -0.2946198  -0.5303219  -0.0589254), wk =   0.0023148
        k(  314) = (  -0.3535452  -0.4713968  -0.1178493), wk =   0.0023148
        k(  315) = (  -0.3535465  -0.3535470  -0.1178485), wk =   0.0023148
        k(  316) = (  -0.4124718  -0.2946220  -0.1767723), wk =   0.0023148
        k(  317) = (  -0.4713972  -0.2356969  -0.2356962), wk =   0.0023148
        k(  318) = (  -0.5303225  -0.1767719  -0.2946200), wk =   0.0023148
        k(  319) = (  -0.5892479  -0.1178469  -0.3535438), wk =   0.0023148
        k(  320) = (  -0.6481733  -0.0589219  -0.4124677), wk =   0.0023148
        k(  321) = (   0.0000057  -0.7070971   0.2356945), wk =   0.0023148
        k(  322) = (  -0.0589197  -0.6481721   0.1767707), wk =   0.0023148
        k(  323) = (  -0.1178450  -0.5892471   0.1178469), wk =   0.0023148
        k(  324) = (  -0.1767704  -0.5303220   0.0589230), wk =   0.0023148
        k(  325) = (  -0.2356957  -0.4713970  -0.0000008), wk =   0.0023148
        k(  326) = (  -0.2946211  -0.4124720  -0.0589246), wk =   0.0023148
        k(  327) = (  -0.2946224  -0.2946222  -0.0589239), wk =   0.0023148
        k(  328) = (  -0.3535477  -0.2356971  -0.1178477), wk =   0.0023148
        k(  329) = (  -0.4124731  -0.1767721  -0.1767715), wk =   0.0023148
        k(  330) = (  -0.4713985  -0.1178471  -0.2356954), wk =   0.0023148
        k(  331) = (  -0.5303238  -0.0589221  -0.2946192), wk =   0.0023148
        k(  332) = (  -0.5892492   0.0000030  -0.3535430), wk =   0.0023148
        k(  333) = (   0.0589298  -0.6481723   0.2946192), wk =   0.0023148
        k(  334) = (   0.0000044  -0.5892473   0.2356953), wk =   0.0023148
        k(  335) = (  -0.0589209  -0.5303222   0.1767715), wk =   0.0023148
        k(  336) = (  -0.1178463  -0.4713972   0.1178477), wk =   0.0023148
        k(  337) = (  -0.1767717  -0.4124722   0.0589238), wk =   0.0023148
        k(  338) = (  -0.2356970  -0.3535472  -0.0000000), wk =   0.0023148
        k(  339) = (  -0.2356983  -0.2356973   0.0000008), wk =   0.0023148
        k(  340) = (  -0.2946237  -0.1767723  -0.0589231), wk =   0.0023148
        k(  341) = (  -0.3535490  -0.1178473  -0.1178469), wk =   0.0023148
        k(  342) = (  -0.4124744  -0.0589223  -0.1767707), wk =   0.0023148
        k(  343) = (  -0.4713997   0.0000028  -0.2356946), wk =   0.0023148
        k(  344) = (  -0.5303251   0.0589278  -0.2946184), wk =   0.0023148
        k(  345) = (   0.1178539  -0.5892475   0.3535438), wk =   0.0023148
        k(  346) = (   0.0589285  -0.5303224   0.2946200), wk =   0.0023148
        k(  347) = (   0.0000031  -0.4713974   0.2356961), wk =   0.0023148
        k(  348) = (  -0.0589222  -0.4124724   0.1767723), wk =   0.0023148
        k(  349) = (  -0.1178476  -0.3535474   0.1178485), wk =   0.0023148
        k(  350) = (  -0.1767729  -0.2946224   0.0589246), wk =   0.0023148
        k(  351) = (  -0.1767742  -0.1767725   0.0589254), wk =   0.0023148
        k(  352) = (  -0.2356996  -0.1178475   0.0000016), wk =   0.0023148
        k(  353) = (  -0.2946249  -0.0589225  -0.0589223), wk =   0.0023148
        k(  354) = (  -0.3535503   0.0000026  -0.1178461), wk =   0.0023148
        k(  355) = (  -0.4124757   0.0589276  -0.1767699), wk =   0.0023148
        k(  356) = (  -0.4714010   0.1178526  -0.2356938), wk =   0.0023148
        k(  357) = (   0.1767780  -0.5303226   0.4124684), wk =   0.0023148
        k(  358) = (   0.1178526  -0.4713976   0.3535446), wk =   0.0023148
        k(  359) = (   0.0589272  -0.4124726   0.2946208), wk =   0.0023148
        k(  360) = (   0.0000019  -0.3535476   0.2356969), wk =   0.0023148
        k(  361) = (  -0.0589235  -0.2946225   0.1767731), wk =   0.0023148
        k(  362) = (  -0.1178489  -0.2356975   0.1178493), wk =   0.0023148
        k(  363) = (  -0.1767752  -0.1767715   0.1767751), wk =   0.0023148
        k(  364) = (  -0.2357006  -0.1178465   0.1178512), wk =   0.0023148
        k(  365) = (  -0.2946259  -0.0589215   0.0589274), wk =   0.0023148
        k(  366) = (  -0.3535513   0.0000036   0.0000036), wk =   0.0023148
        k(  367) = (  -0.4124767   0.0589286  -0.0589203), wk =   0.0023148
        k(  368) = (  -0.4714020   0.1178536  -0.1178441), wk =   0.0023148
        k(  369) = (   0.1767770  -0.5303216   0.5303181), wk =   0.0023148
        k(  370) = (   0.1178516  -0.4713966   0.4713943), wk =   0.0023148
        k(  371) = (   0.0589262  -0.4124716   0.4124704), wk =   0.0023148
        k(  372) = (   0.0000009  -0.3535466   0.3535466), wk =   0.0023148
        k(  373) = (  -0.0589245  -0.2946216   0.2946227), wk =   0.0023148
        k(  374) = (  -0.1178498  -0.2356965   0.2356989), wk =   0.0023148
        k(  375) = (  -0.1178511  -0.1178467   0.2356997), wk =   0.0023148
        k(  376) = (  -0.1767765  -0.0589217   0.1767759), wk =   0.0023148
        k(  377) = (  -0.2357019   0.0000034   0.1178520), wk =   0.0023148
        k(  378) = (  -0.2946272   0.0589284   0.0589282), wk =   0.0023148
        k(  379) = (  -0.3535526   0.1178534   0.0000043), wk =   0.0023148
        k(  380) = (  -0.4124779   0.1767784  -0.0589195), wk =   0.0023148
        k(  381) = (   0.2357010  -0.4713968   0.5892427), wk =   0.0023148
        k(  382) = (   0.1767757  -0.4124718   0.5303189), wk =   0.0023148
        k(  383) = (   0.1178503  -0.3535468   0.4713950), wk =   0.0023148
        k(  384) = (   0.0589250  -0.2946218   0.4124712), wk =   0.0023148
        k(  385) = (  -0.0000004  -0.2356967   0.3535474), wk =   0.0023148
        k(  386) = (  -0.0589258  -0.1767717   0.2946235), wk =   0.0023148
        k(  387) = (  -0.0589270  -0.0589219   0.2946243), wk =   0.0023148
        k(  388) = (  -0.1178524   0.0000032   0.2357005), wk =   0.0023148
        k(  389) = (  -0.1767778   0.0589282   0.1767767), wk =   0.0023148
        k(  390) = (  -0.2357031   0.1178532   0.1178528), wk =   0.0023148
        k(  391) = (  -0.2946285   0.1767782   0.0589290), wk =   0.0023148
        k(  392) = (  -0.3535539   0.2357033   0.0000051), wk =   0.0023148
        k(  393) = (   0.2946251  -0.4124720   0.6481674), wk =   0.0023148
        k(  394) = (   0.2356998  -0.3535470   0.5892435), wk =   0.0023148
        k(  395) = (   0.1767744  -0.2946219   0.5303197), wk =   0.0023148
        k(  396) = (   0.1178490  -0.2356969   0.4713958), wk =   0.0023148
        k(  397) = (   0.0589237  -0.1767719   0.4124720), wk =   0.0023148
        k(  398) = (  -0.0000017  -0.1178469   0.3535482), wk =   0.0023148
        k(  399) = (  -0.0000030   0.0000030   0.3535490), wk =   0.0023148
        k(  400) = (  -0.0589283   0.0589280   0.2946251), wk =   0.0023148
        k(  401) = (  -0.1178537   0.1178530   0.2357013), wk =   0.0023148
        k(  402) = (  -0.1767791   0.1767780   0.1767775), wk =   0.0023148
        k(  403) = (  -0.2357044   0.2357031   0.1178536), wk =   0.0023148
        k(  404) = (  -0.2946298   0.2946281   0.0589298), wk =   0.0023148
        k(  405) = (   0.3535492  -0.3535472   0.7070920), wk =   0.0023148
        k(  406) = (   0.2946238  -0.2946221   0.6481682), wk =   0.0023148
        k(  407) = (   0.2356985  -0.2356971   0.5892443), wk =   0.0023148
        k(  408) = (   0.1767731  -0.1767721   0.5303205), wk =   0.0023148
        k(  409) = (   0.1178478  -0.1178471   0.4713966), wk =   0.0023148
        k(  410) = (   0.0589224  -0.0589221   0.4124728), wk =   0.0023148
        k(  411) = (   0.0589211   0.0589278   0.4124736), wk =   0.0023148
        k(  412) = (  -0.0000042   0.1178528   0.3535498), wk =   0.0023148
        k(  413) = (  -0.0589296   0.1767778   0.2946259), wk =   0.0023148
        k(  414) = (  -0.1178550   0.2357029   0.2357021), wk =   0.0023148
        k(  415) = (  -0.1767803   0.2946279   0.1767782), wk =   0.0023148
        k(  416) = (  -0.2357057   0.3535529   0.1178544), wk =   0.0023148
        k(  417) = (   0.4124733  -0.2946223   0.7660166), wk =   0.0023148
        k(  418) = (   0.3535479  -0.2356973   0.7070928), wk =   0.0023148
        k(  419) = (   0.2946226  -0.1767723   0.6481689), wk =   0.0023148
        k(  420) = (   0.2356972  -0.1178473   0.5892451), wk =   0.0023148
        k(  421) = (   0.1767718  -0.0589223   0.5303213), wk =   0.0023148
        k(  422) = (   0.1178465   0.0000028   0.4713974), wk =   0.0023148
        k(  423) = (   0.1178452   0.1178526   0.4713982), wk =   0.0023148
        k(  424) = (   0.0589198   0.1767776   0.4124744), wk =   0.0023148
        k(  425) = (  -0.0000055   0.2357027   0.3535506), wk =   0.0023148
        k(  426) = (  -0.0589309   0.2946277   0.2946267), wk =   0.0023148
        k(  427) = (  -0.1178563   0.3535527   0.2357029), wk =   0.0023148
        k(  428) = (  -0.1767816   0.4124777   0.1767790), wk =   0.0023148
        k(  429) = (   0.4713974  -0.2356975   0.8249413), wk =   0.0023148
        k(  430) = (   0.4124720  -0.1767725   0.7660174), wk =   0.0023148
        k(  431) = (   0.3535466  -0.1178475   0.7070936), wk =   0.0023148
        k(  432) = (   0.2946213  -0.0589224   0.6481697), wk =   0.0023148
        k(  433) = (   0.2356959   0.0000026   0.5892459), wk =   0.0023148
        k(  434) = (   0.1767706   0.0589276   0.5303221), wk =   0.0023148
        k(  435) = (  -0.5303197  -0.5303205  -0.1767727), wk =   0.0023148
        k(  436) = (  -0.5892451  -0.4713955  -0.2356966), wk =   0.0023148
        k(  437) = (  -0.6481704  -0.4124704  -0.2946204), wk =   0.0023148
        k(  438) = (  -0.7070958  -0.3535454  -0.3535442), wk =   0.0023148
        k(  439) = (  -0.7660211  -0.2946204  -0.4124681), wk =   0.0023148
        k(  440) = (  -0.8249465  -0.2356954  -0.4713919), wk =   0.0023148
        k(  441) = (  -0.1767675  -0.8838706   0.1767703), wk =   0.0023148
        k(  442) = (  -0.2356929  -0.8249456   0.1178465), wk =   0.0023148
        k(  443) = (  -0.2946182  -0.7660206   0.0589226), wk =   0.0023148
        k(  444) = (  -0.3535436  -0.7070955  -0.0000012), wk =   0.0023148
        k(  445) = (  -0.4124690  -0.6481705  -0.0589251), wk =   0.0023148
        k(  446) = (  -0.4713943  -0.5892455  -0.1178489), wk =   0.0023148
        k(  447) = (  -0.4713956  -0.4713956  -0.1178481), wk =   0.0023148
        k(  448) = (  -0.5303210  -0.4124706  -0.1767719), wk =   0.0023148
        k(  449) = (  -0.5892463  -0.3535456  -0.2356958), wk =   0.0023148
        k(  450) = (  -0.6481717  -0.2946206  -0.2946196), wk =   0.0023148
        k(  451) = (  -0.7070971  -0.2356956  -0.3535434), wk =   0.0023148
        k(  452) = (  -0.7660224  -0.1767705  -0.4124673), wk =   0.0023148
        k(  453) = (  -0.1178434  -0.8249458   0.2356949), wk =   0.0023148
        k(  454) = (  -0.1767688  -0.7660208   0.1767711), wk =   0.0023148
        k(  455) = (  -0.2356942  -0.7070957   0.1178473), wk =   0.0023148
        k(  456) = (  -0.2946195  -0.6481707   0.0589234), wk =   0.0023148
        k(  457) = (  -0.3535449  -0.5892457  -0.0000004), wk =   0.0023148
        k(  458) = (  -0.4124703  -0.5303207  -0.0589243), wk =   0.0023148
        k(  459) = (  -0.4124715  -0.4124708  -0.0589235), wk =   0.0023148
        k(  460) = (  -0.4713969  -0.3535458  -0.1178473), wk =   0.0023148
        k(  461) = (  -0.5303223  -0.2946208  -0.1767711), wk =   0.0023148
        k(  462) = (  -0.5892476  -0.2356958  -0.2356950), wk =   0.0023148
        k(  463) = (  -0.6481730  -0.1767707  -0.2946188), wk =   0.0023148
        k(  464) = (  -0.7070983  -0.1178457  -0.3535426), wk =   0.0023148
        k(  465) = (  -0.0589194  -0.7660210   0.2946196), wk =   0.0023148
        k(  466) = (  -0.1178447  -0.7070959   0.2356957), wk =   0.0023148
        k(  467) = (  -0.1767701  -0.6481709   0.1767719), wk =   0.0023148
        k(  468) = (  -0.2356954  -0.5892459   0.1178481), wk =   0.0023148
        k(  469) = (  -0.2946208  -0.5303209   0.0589242), wk =   0.0023148
        k(  470) = (  -0.3535462  -0.4713958   0.0000004), wk =   0.0023148
        k(  471) = (  -0.3535475  -0.3535460   0.0000012), wk =   0.0023148
        k(  472) = (  -0.4124728  -0.2946210  -0.0589227), wk =   0.0023148
        k(  473) = (  -0.4713982  -0.2356959  -0.1178465), wk =   0.0023148
        k(  474) = (  -0.5303235  -0.1767709  -0.1767703), wk =   0.0023148
        k(  475) = (  -0.5892489  -0.1178459  -0.2356942), wk =   0.0023148
        k(  476) = (  -0.6481743  -0.0589209  -0.2946180), wk =   0.0023148
        k(  477) = (   0.0000047  -0.7070961   0.3535442), wk =   0.0023148
        k(  478) = (  -0.0589206  -0.6481711   0.2946204), wk =   0.0023148
        k(  479) = (  -0.1178460  -0.5892461   0.2356965), wk =   0.0023148
        k(  480) = (  -0.1767714  -0.5303211   0.1767727), wk =   0.0023148
        k(  481) = (  -0.2356967  -0.4713960   0.1178488), wk =   0.0023148
        k(  482) = (  -0.2946221  -0.4124710   0.0589250), wk =   0.0023148
        k(  483) = (  -0.2946234  -0.2946212   0.0589258), wk =   0.0023148
        k(  484) = (  -0.3535487  -0.2356961   0.0000020), wk =   0.0023148
        k(  485) = (  -0.4124741  -0.1767711  -0.0589219), wk =   0.0023148
        k(  486) = (  -0.4713995  -0.1178461  -0.1178457), wk =   0.0023148
        k(  487) = (  -0.5303248  -0.0589211  -0.1767695), wk =   0.0023148
        k(  488) = (  -0.5892502   0.0000039  -0.2356934), wk =   0.0023148
        k(  489) = (   0.0589288  -0.6481713   0.4124688), wk =   0.0023148
        k(  490) = (   0.0000034  -0.5892463   0.3535450), wk =   0.0023148
        k(  491) = (  -0.0589219  -0.5303213   0.2946212), wk =   0.0023148
        k(  492) = (  -0.1178473  -0.4713962   0.2356973), wk =   0.0023148
        k(  493) = (  -0.1767726  -0.4124712   0.1767735), wk =   0.0023148
        k(  494) = (  -0.2356980  -0.3535462   0.1178496), wk =   0.0023148
        k(  495) = (  -0.2356993  -0.2356963   0.1178504), wk =   0.0023148
        k(  496) = (  -0.2946247  -0.1767713   0.0589266), wk =   0.0023148
        k(  497) = (  -0.3535500  -0.1178463   0.0000028), wk =   0.0023148
        k(  498) = (  -0.4124754  -0.0589213  -0.0589211), wk =   0.0023148
        k(  499) = (  -0.4714007   0.0000037  -0.1178449), wk =   0.0023148
        k(  500) = (  -0.5303261   0.0589288  -0.1767688), wk =   0.0023148
        k(  501) = (   0.1178529  -0.5892465   0.4713935), wk =   0.0023148
        k(  502) = (   0.0589275  -0.5303215   0.4124696), wk =   0.0023148
        k(  503) = (   0.0000022  -0.4713964   0.3535458), wk =   0.0023148
        k(  504) = (  -0.0589232  -0.4124714   0.2946219), wk =   0.0023148
        k(  505) = (  -0.1178486  -0.3535464   0.2356981), wk =   0.0023148
        k(  506) = (  -0.1767739  -0.2946214   0.1767743), wk =   0.0023148
        k(  507) = (  -0.2357003  -0.2356954   0.2357001), wk =   0.0023148
        k(  508) = (  -0.2946256  -0.1767703   0.1767763), wk =   0.0023148
        k(  509) = (  -0.3535510  -0.1178453   0.1178524), wk =   0.0023148
        k(  510) = (  -0.4124764  -0.0589203   0.0589286), wk =   0.0023148
        k(  511) = (  -0.4714017   0.0000047   0.0000047), wk =   0.0023148
        k(  512) = (  -0.5303271   0.0589298  -0.0589191), wk =   0.0023148
        k(  513) = (   0.1178519  -0.5892455   0.5892431), wk =   0.0023148
        k(  514) = (   0.0589265  -0.5303205   0.5303193), wk =   0.0023148
        k(  515) = (   0.0000012  -0.4713954   0.4713954), wk =   0.0023148
        k(  516) = (  -0.0589242  -0.4124704   0.4124716), wk =   0.0023148
        k(  517) = (  -0.1178496  -0.3535454   0.3535478), wk =   0.0023148
        k(  518) = (  -0.1767749  -0.2946204   0.2946239), wk =   0.0023148
        k(  519) = (  -0.1767762  -0.1767705   0.2946247), wk =   0.0023148
        k(  520) = (  -0.2357016  -0.1178455   0.2357009), wk =   0.0023148
        k(  521) = (  -0.2946269  -0.0589205   0.1767770), wk =   0.0023148
        k(  522) = (  -0.3535523   0.0000045   0.1178532), wk =   0.0023148
        k(  523) = (  -0.4124776   0.0589296   0.0589294), wk =   0.0023148
        k(  524) = (  -0.4714030   0.1178546   0.0000055), wk =   0.0023148
        k(  525) = (   0.1767760  -0.5303207   0.6481677), wk =   0.0023148
        k(  526) = (   0.1178506  -0.4713956   0.5892439), wk =   0.0023148
        k(  527) = (   0.0589252  -0.4124706   0.5303201), wk =   0.0023148
        k(  528) = (  -0.0000001  -0.3535456   0.4713962), wk =   0.0023148
        k(  529) = (  -0.0589255  -0.2946206   0.4124724), wk =   0.0023148
        k(  530) = (  -0.1178508  -0.2356955   0.3535486), wk =   0.0023148
        k(  531) = (  -0.1178521  -0.1178457   0.3535494), wk =   0.0023148
        k(  532) = (  -0.1767775  -0.0589207   0.2946255), wk =   0.0023148
        k(  533) = (  -0.2357028   0.0000043   0.2357017), wk =   0.0023148
        k(  534) = (  -0.2946282   0.0589294   0.1767778), wk =   0.0023148
        k(  535) = (  -0.3535536   0.1178544   0.1178540), wk =   0.0023148
        k(  536) = (  -0.4124789   0.1767794   0.0589302), wk =   0.0023148
        k(  537) = (   0.2357001  -0.4713958   0.7070924), wk =   0.0023148
        k(  538) = (   0.1767747  -0.4124708   0.6481685), wk =   0.0023148
        k(  539) = (   0.1178493  -0.3535458   0.5892447), wk =   0.0023148
        k(  540) = (   0.0589240  -0.2946208   0.5303209), wk =   0.0023148
        k(  541) = (  -0.0000014  -0.2356957   0.4713970), wk =   0.0023148
        k(  542) = (  -0.0589268  -0.1767707   0.4124732), wk =   0.0023148
        k(  543) = (  -0.0589280  -0.0589209   0.4124740), wk =   0.0023148
        k(  544) = (  -0.1178534   0.0000042   0.3535501), wk =   0.0023148
        k(  545) = (  -0.1767788   0.0589292   0.2946263), wk =   0.0023148
        k(  546) = (  -0.2357041   0.1178542   0.2357025), wk =   0.0023148
        k(  547) = (  -0.2946295   0.1767792   0.1767786), wk =   0.0023148
        k(  548) = (  -0.3535548   0.2357042   0.1178548), wk =   0.0023148
        k(  549) = (   0.2946241  -0.4124710   0.7660170), wk =   0.0023148
        k(  550) = (   0.2356988  -0.3535460   0.7070932), wk =   0.0023148
        k(  551) = (   0.1767734  -0.2946210   0.6481693), wk =   0.0023148
        k(  552) = (   0.1178480  -0.2356959   0.5892455), wk =   0.0023148
        k(  553) = (   0.0589227  -0.1767709   0.5303217), wk =   0.0023148
        k(  554) = (  -0.0000027  -0.1178459   0.4713978), wk =   0.0023148
        k(  555) = (  -0.0000040   0.0000040   0.4713986), wk =   0.0023148
        k(  556) = (  -0.0589293   0.0589290   0.4124748), wk =   0.0023148
        k(  557) = (  -0.1178547   0.1178540   0.3535509), wk =   0.0023148
        k(  558) = (  -0.1767800   0.1767790   0.2946271), wk =   0.0023148
        k(  559) = (  -0.2357054   0.2357040   0.2357033), wk =   0.0023148
        k(  560) = (  -0.2946308   0.2946291   0.1767794), wk =   0.0023148
        k(  561) = (   0.3535482  -0.3535462   0.8249416), wk =   0.0023148
        k(  562) = (   0.2946229  -0.2946212   0.7660178), wk =   0.0023148
        k(  563) = (   0.2356975  -0.2356961   0.7070940), wk =   0.0023148
        k(  564) = (   0.1767721  -0.1767711   0.6481701), wk =   0.0023148
        k(  565) = (   0.1178468  -0.1178461   0.5892463), wk =   0.0023148
        k(  566) = (   0.0589214  -0.0589211   0.5303225), wk =   0.0023148
        k(  567) = (   0.0589201   0.0589288   0.5303233), wk =   0.0023148
        k(  568) = (  -0.0000052   0.1178538   0.4713994), wk =   0.0023148
        k(  569) = (  -0.0589306   0.1767788   0.4124756), wk =   0.0023148
        k(  570) = (  -0.1178560   0.2357039   0.3535517), wk =   0.0023148
        k(  571) = (  -0.1767813   0.2946289   0.2946279), wk =   0.0023148
        k(  572) = (  -0.2357067   0.3535539   0.2357041), wk =   0.0023148
        k(  573) = (   0.4124723  -0.2946214   0.8838663), wk =   0.0023148
        k(  574) = (   0.3535469  -0.2356963   0.8249424), wk =   0.0023148
        k(  575) = (   0.2946216  -0.1767713   0.7660186), wk =   0.0023148
        k(  576) = (   0.2356962  -0.1178463   0.7070948), wk =   0.0023148
        k(  577) = (   0.1767708  -0.0589213   0.6481709), wk =   0.0023148
        k(  578) = (   0.1178455   0.0000038   0.5892471), wk =   0.0023148
        k(  579) = (  -0.5892448  -0.5892443  -0.1178477), wk =   0.0023148
        k(  580) = (  -0.6481701  -0.5303193  -0.1767715), wk =   0.0023148
        k(  581) = (  -0.7070955  -0.4713943  -0.2356954), wk =   0.0023148
        k(  582) = (  -0.7660209  -0.4124692  -0.2946192), wk =   0.0023148
        k(  583) = (  -0.8249462  -0.3535442  -0.3535431), wk =   0.0023148
        k(  584) = (  -0.8838716  -0.2946192  -0.4124669), wk =   0.0023148
        k(  585) = (  -0.2356926  -0.9427944   0.2356953), wk =   0.0023148
        k(  586) = (  -0.2946180  -0.8838694   0.1767715), wk =   0.0023148
        k(  587) = (  -0.3535433  -0.8249444   0.1178476), wk =   0.0023148
        k(  588) = (  -0.4124687  -0.7660194   0.0589238), wk =   0.0023148
        k(  589) = (  -0.4713940  -0.7070944  -0.0000000), wk =   0.0023148
        k(  590) = (  -0.5303194  -0.6481693  -0.0589239), wk =   0.0023148
        k(  591) = (  -0.5303207  -0.5303195  -0.0589231), wk =   0.0023148
        k(  592) = (  -0.5892460  -0.4713945  -0.1178469), wk =   0.0023148
        k(  593) = (  -0.6481714  -0.4124694  -0.1767707), wk =   0.0023148
        k(  594) = (  -0.7070968  -0.3535444  -0.2356946), wk =   0.0023148
        k(  595) = (  -0.7660221  -0.2946194  -0.2946184), wk =   0.0023148
        k(  596) = (  -0.8249475  -0.2356944  -0.3535423), wk =   0.0023148
        k(  597) = (  -0.1767685  -0.8838696   0.2946200), wk =   0.0023148
        k(  598) = (  -0.2356939  -0.8249446   0.2356961), wk =   0.0023148
        k(  599) = (  -0.2946192  -0.7660196   0.1767723), wk =   0.0023148
        k(  600) = (  -0.3535446  -0.7070946   0.1178484), wk =   0.0023148
        k(  601) = (  -0.4124700  -0.6481695   0.0589246), wk =   0.0023148
        k(  602) = (  -0.4713953  -0.5892445   0.0000008), wk =   0.0023148
        k(  603) = (  -0.4713966  -0.4713947   0.0000016), wk =   0.0023148
        k(  604) = (  -0.5303220  -0.4124696  -0.0589223), wk =   0.0023148
        k(  605) = (  -0.5892473  -0.3535446  -0.1178461), wk =   0.0023148
        k(  606) = (  -0.6481727  -0.2946196  -0.1767700), wk =   0.0023148
        k(  607) = (  -0.7070981  -0.2356946  -0.2356938), wk =   0.0023148
        k(  608) = (  -0.7660234  -0.1767695  -0.2946176), wk =   0.0023148
        k(  609) = (  -0.1178444  -0.8249448   0.3535446), wk =   0.0023148
        k(  610) = (  -0.1767698  -0.7660198   0.2946207), wk =   0.0023148
        k(  611) = (  -0.2356952  -0.7070947   0.2356969), wk =   0.0023148
        k(  612) = (  -0.2946205  -0.6481697   0.1767731), wk =   0.0023148
        k(  613) = (  -0.3535459  -0.5892447   0.1178492), wk =   0.0023148
        k(  614) = (  -0.4124712  -0.5303197   0.0589254), wk =   0.0023148
        k(  615) = (  -0.4124725  -0.4124698   0.0589262), wk =   0.0023148
        k(  616) = (  -0.4713979  -0.3535448   0.0000024), wk =   0.0023148
        k(  617) = (  -0.5303232  -0.2946198  -0.0589215), wk =   0.0023148
        k(  618) = (  -0.5892486  -0.2356948  -0.1178453), wk =   0.0023148
        k(  619) = (  -0.6481740  -0.1767697  -0.1767692), wk =   0.0023148
        k(  620) = (  -0.7070993  -0.1178447  -0.2356930), wk =   0.0023148
        k(  621) = (  -0.0589204  -0.7660200   0.4124692), wk =   0.0023148
        k(  622) = (  -0.1178457  -0.7070949   0.3535454), wk =   0.0023148
        k(  623) = (  -0.1767711  -0.6481699   0.2946215), wk =   0.0023148
        k(  624) = (  -0.2356964  -0.5892449   0.2356977), wk =   0.0023148
        k(  625) = (  -0.2946218  -0.5303199   0.1767739), wk =   0.0023148
        k(  626) = (  -0.3535472  -0.4713949   0.1178500), wk =   0.0023148
        k(  627) = (  -0.3535484  -0.3535450   0.1178508), wk =   0.0023148
        k(  628) = (  -0.4124738  -0.2946200   0.0589270), wk =   0.0023148
        k(  629) = (  -0.4713992  -0.2356950   0.0000031), wk =   0.0023148
        k(  630) = (  -0.5303245  -0.1767699  -0.0589207), wk =   0.0023148
        k(  631) = (  -0.5892499  -0.1178449  -0.1178445), wk =   0.0023148
        k(  632) = (  -0.6481753  -0.0589199  -0.1767684), wk =   0.0023148
        k(  633) = (   0.0000037  -0.7070951   0.4713939), wk =   0.0023148
        k(  634) = (  -0.0589216  -0.6481701   0.4124700), wk =   0.0023148
        k(  635) = (  -0.1178470  -0.5892451   0.3535462), wk =   0.0023148
        k(  636) = (  -0.1767724  -0.5303201   0.2946223), wk =   0.0023148
        k(  637) = (  -0.2356977  -0.4713950   0.2356985), wk =   0.0023148
        k(  638) = (  -0.2946231  -0.4124700   0.1767747), wk =   0.0023148
        k(  639) = (  -0.2946244  -0.2946202   0.1767755), wk =   0.0023148
        k(  640) = (  -0.3535497  -0.2356952   0.1178516), wk =   0.0023148
        k(  641) = (  -0.4124751  -0.1767701   0.0589278), wk =   0.0023148
        k(  642) = (  -0.4714004  -0.1178451   0.0000039), wk =   0.0023148
        k(  643) = (  -0.5303258  -0.0589201  -0.0589199), wk =   0.0023148
        k(  644) = (  -0.5892512   0.0000049  -0.1178437), wk =   0.0023148
        k(  645) = (   0.0589278  -0.6481703   0.5303185), wk =   0.0023148
        k(  646) = (   0.0000024  -0.5892453   0.4713946), wk =   0.0023148
        k(  647) = (  -0.0589229  -0.5303203   0.4124708), wk =   0.0023148
        k(  648) = (  -0.1178483  -0.4713952   0.3535470), wk =   0.0023148
        k(  649) = (  -0.1767736  -0.4124702   0.2946231), wk =   0.0023148
        k(  650) = (  -0.2356990  -0.3535452   0.2356993), wk =   0.0023148
        k(  651) = (  -0.2946254  -0.2946192   0.2946251), wk =   0.0023148
        k(  652) = (  -0.3535507  -0.2356942   0.2357013), wk =   0.0023148
        k(  653) = (  -0.4124761  -0.1767691   0.1767774), wk =   0.0023148
        k(  654) = (  -0.4714014  -0.1178441   0.1178536), wk =   0.0023148
        k(  655) = (  -0.5303268  -0.0589191   0.0589298), wk =   0.0023148
        k(  656) = (  -0.5892522   0.0000059   0.0000059), wk =   0.0023148
        k(  657) = (   0.0589268  -0.6481693   0.6481681), wk =   0.0023148
        k(  658) = (   0.0000015  -0.5892443   0.5892443), wk =   0.0023148
        k(  659) = (  -0.0589239  -0.5303193   0.5303205), wk =   0.0023148
        k(  660) = (  -0.1178493  -0.4713943   0.4713966), wk =   0.0023148
        k(  661) = (  -0.1767746  -0.4124692   0.4124728), wk =   0.0023148
        k(  662) = (  -0.2357000  -0.3535442   0.3535489), wk =   0.0023148
        k(  663) = (  -0.2357013  -0.2356944   0.3535497), wk =   0.0023148
        k(  664) = (  -0.2946266  -0.1767693   0.2946259), wk =   0.0023148
        k(  665) = (  -0.3535520  -0.1178443   0.2357021), wk =   0.0023148
        k(  666) = (  -0.4124774  -0.0589193   0.1767782), wk =   0.0023148
        k(  667) = (  -0.4714027   0.0000057   0.1178544), wk =   0.0023148
        k(  668) = (  -0.5303281   0.0589308   0.0589306), wk =   0.0023148
        k(  669) = (   0.1178509  -0.5892445   0.7070928), wk =   0.0023148
        k(  670) = (   0.0589255  -0.5303195   0.6481689), wk =   0.0023148
        k(  671) = (   0.0000002  -0.4713945   0.5892451), wk =   0.0023148
        k(  672) = (  -0.0589252  -0.4124694   0.5303213), wk =   0.0023148
        k(  673) = (  -0.1178505  -0.3535444   0.4713974), wk =   0.0023148
        k(  674) = (  -0.1767759  -0.2946194   0.4124736), wk =   0.0023148
        k(  675) = (  -0.1767772  -0.1767695   0.4124744), wk =   0.0023148
        k(  676) = (  -0.2357026  -0.1178445   0.3535505), wk =   0.0023148
        k(  677) = (  -0.2946279  -0.0589195   0.2946267), wk =   0.0023148
        k(  678) = (  -0.3535533   0.0000055   0.2357029), wk =   0.0023148
        k(  679) = (  -0.4124786   0.0589306   0.1767790), wk =   0.0023148
        k(  680) = (  -0.4714040   0.1178556   0.1178552), wk =   0.0023148
        k(  681) = (   0.1767750  -0.5303197   0.7660174), wk =   0.0023148
        k(  682) = (   0.1178496  -0.4713946   0.7070936), wk =   0.0023148
        k(  683) = (   0.0589243  -0.4124696   0.6481697), wk =   0.0023148
        k(  684) = (  -0.0000011  -0.3535446   0.5892459), wk =   0.0023148
        k(  685) = (  -0.0589265  -0.2946196   0.5303221), wk =   0.0023148
        k(  686) = (  -0.1178518  -0.2356946   0.4713982), wk =   0.0023148
        k(  687) = (  -0.1178531  -0.1178447   0.4713990), wk =   0.0023148
        k(  688) = (  -0.1767785  -0.0589197   0.4124752), wk =   0.0023148
        k(  689) = (  -0.2357038   0.0000053   0.3535513), wk =   0.0023148
        k(  690) = (  -0.2946292   0.0589304   0.2946275), wk =   0.0023148
        k(  691) = (  -0.3535546   0.1178554   0.2357037), wk =   0.0023148
        k(  692) = (  -0.4124799   0.1767804   0.1767798), wk =   0.0023148
        k(  693) = (   0.2356991  -0.4713948   0.8249420), wk =   0.0023148
        k(  694) = (   0.1767737  -0.4124698   0.7660182), wk =   0.0023148
        k(  695) = (   0.1178483  -0.3535448   0.7070944), wk =   0.0023148
        k(  696) = (   0.0589230  -0.2946198   0.6481705), wk =   0.0023148
        k(  697) = (  -0.0000024  -0.2356948   0.5892467), wk =   0.0023148
        k(  698) = (  -0.0589277  -0.1767697   0.5303228), wk =   0.0023148
        k(  699) = (  -0.0589290  -0.0589199   0.5303236), wk =   0.0023148
        k(  700) = (  -0.1178544   0.0000051   0.4713998), wk =   0.0023148
        k(  701) = (  -0.1767798   0.0589302   0.4124760), wk =   0.0023148
        k(  702) = (  -0.2357051   0.1178552   0.3535521), wk =   0.0023148
        k(  703) = (  -0.2946305   0.1767802   0.2946283), wk =   0.0023148
        k(  704) = (  -0.3535558   0.2357052   0.2357045), wk =   0.0023148
        k(  705) = (   0.2946231  -0.4124700   0.8838667), wk =   0.0023148
        k(  706) = (   0.2356978  -0.3535450   0.8249428), wk =   0.0023148
        k(  707) = (   0.1767724  -0.2946200   0.7660190), wk =   0.0023148
        k(  708) = (   0.1178471  -0.2356949   0.7070952), wk =   0.0023148
        k(  709) = (   0.0589217  -0.1767699   0.6481713), wk =   0.0023148
        k(  710) = (  -0.0000037  -0.1178449   0.5892475), wk =   0.0023148
        k(  711) = (  -0.0000049   0.0000049   0.5892483), wk =   0.0023148
        k(  712) = (  -0.0589303   0.0589300   0.5303244), wk =   0.0023148
        k(  713) = (  -0.1178557   0.1178550   0.4714006), wk =   0.0023148
        k(  714) = (  -0.1767810   0.1767800   0.4124768), wk =   0.0023148
        k(  715) = (  -0.2357064   0.2357050   0.3535529), wk =   0.0023148
        k(  716) = (  -0.2946318   0.2946301   0.2946291), wk =   0.0023148
        k(  717) = (   0.3535472  -0.3535452   0.9427913), wk =   0.0023148
        k(  718) = (   0.2946219  -0.2946202   0.8838675), wk =   0.0023148
        k(  719) = (   0.2356965  -0.2356951   0.8249436), wk =   0.0023148
        k(  720) = (   0.1767711  -0.1767701   0.7660198), wk =   0.0023148
        k(  721) = (   0.1178458  -0.1178451   0.7070959), wk =   0.0023148
        k(  722) = (   0.0589204  -0.0589201   0.6481721), wk =   0.0023148
        k(  723) = (  -0.6481698  -0.6481681  -0.0589227), wk =   0.0023148
        k(  724) = (  -0.7070952  -0.5892431  -0.1178465), wk =   0.0023148
        k(  725) = (  -0.7660206  -0.5303181  -0.1767704), wk =   0.0023148
        k(  726) = (  -0.8249459  -0.4713931  -0.2356942), wk =   0.0023148
        k(  727) = (  -0.8838713  -0.4124681  -0.2946180), wk =   0.0023148
        k(  728) = (  -0.9427966  -0.3535430  -0.3535419), wk =   0.0023148
        k(  729) = (  -0.2946177  -1.0017183   0.2946203), wk =   0.0023148
        k(  730) = (  -0.3535430  -0.9427933   0.2356965), wk =   0.0023148
        k(  731) = (  -0.4124684  -0.8838682   0.1767727), wk =   0.0023148
        k(  732) = (  -0.4713937  -0.8249432   0.1178488), wk =   0.0023148
        k(  733) = (  -0.5303191  -0.7660182   0.0589250), wk =   0.0023148
        k(  734) = (  -0.5892445  -0.7070932   0.0000012), wk =   0.0023148
        k(  735) = (  -0.5892458  -0.5892433   0.0000020), wk =   0.0023148
        k(  736) = (  -0.6481711  -0.5303183  -0.0589219), wk =   0.0023148
        k(  737) = (  -0.7070965  -0.4713933  -0.1178457), wk =   0.0023148
        k(  738) = (  -0.7660218  -0.4124683  -0.1767696), wk =   0.0023148
        k(  739) = (  -0.8249472  -0.3535432  -0.2356934), wk =   0.0023148
        k(  740) = (  -0.8838726  -0.2946182  -0.2946172), wk =   0.0023148
        k(  741) = (  -0.2356936  -0.9427935   0.3535450), wk =   0.0023148
        k(  742) = (  -0.2946189  -0.8838684   0.2946211), wk =   0.0023148
        k(  743) = (  -0.3535443  -0.8249434   0.2356973), wk =   0.0023148
        k(  744) = (  -0.4124697  -0.7660184   0.1767735), wk =   0.0023148
        k(  745) = (  -0.4713950  -0.7070934   0.1178496), wk =   0.0023148
        k(  746) = (  -0.5303204  -0.6481683   0.0589258), wk =   0.0023148
        k(  747) = (  -0.5303217  -0.5303185   0.0589266), wk =   0.0023148
        k(  748) = (  -0.5892470  -0.4713935   0.0000027), wk =   0.0023148
        k(  749) = (  -0.6481724  -0.4124685  -0.0589211), wk =   0.0023148
        k(  750) = (  -0.7070978  -0.3535434  -0.1178449), wk =   0.0023148
        k(  751) = (  -0.7660231  -0.2946184  -0.1767688), wk =   0.0023148
        k(  752) = (  -0.8249485  -0.2356934  -0.2356926), wk =   0.0023148
        k(  753) = (  -0.1767695  -0.8838686   0.4124696), wk =   0.0023148
        k(  754) = (  -0.2356949  -0.8249436   0.3535458), wk =   0.0023148
        k(  755) = (  -0.2946202  -0.7660186   0.2946219), wk =   0.0023148
        k(  756) = (  -0.3535456  -0.7070936   0.2356981), wk =   0.0023148
        k(  757) = (  -0.4124709  -0.6481685   0.1767743), wk =   0.0023148
        k(  758) = (  -0.4713963  -0.5892435   0.1178504), wk =   0.0023148
        k(  759) = (  -0.4713976  -0.4713937   0.1178512), wk =   0.0023148
        k(  760) = (  -0.5303230  -0.4124686   0.0589274), wk =   0.0023148
        k(  761) = (  -0.5892483  -0.3535436   0.0000035), wk =   0.0023148
        k(  762) = (  -0.6481737  -0.2946186  -0.0589203), wk =   0.0023148
        k(  763) = (  -0.7070990  -0.2356936  -0.1178441), wk =   0.0023148
        k(  764) = (  -0.7660244  -0.1767686  -0.1767680), wk =   0.0023148
        k(  765) = (  -0.1178454  -0.8249438   0.4713942), wk =   0.0023148
        k(  766) = (  -0.1767708  -0.7660188   0.4124704), wk =   0.0023148
        k(  767) = (  -0.2356961  -0.7070938   0.3535466), wk =   0.0023148
        k(  768) = (  -0.2946215  -0.6481687   0.2946227), wk =   0.0023148
        k(  769) = (  -0.3535469  -0.5892437   0.2356989), wk =   0.0023148
        k(  770) = (  -0.4124722  -0.5303187   0.1767751), wk =   0.0023148
        k(  771) = (  -0.4124735  -0.4124688   0.1767758), wk =   0.0023148
        k(  772) = (  -0.4713989  -0.3535438   0.1178520), wk =   0.0023148
        k(  773) = (  -0.5303242  -0.2946188   0.0589282), wk =   0.0023148
        k(  774) = (  -0.5892496  -0.2356938   0.0000043), wk =   0.0023148
        k(  775) = (  -0.6481750  -0.1767688  -0.0589195), wk =   0.0023148
        k(  776) = (  -0.7071003  -0.1178437  -0.1178433), wk =   0.0023148
        k(  777) = (  -0.0589213  -0.7660190   0.5303189), wk =   0.0023148
        k(  778) = (  -0.1178467  -0.7070940   0.4713950), wk =   0.0023148
        k(  779) = (  -0.1767721  -0.6481689   0.4124712), wk =   0.0023148
        k(  780) = (  -0.2356974  -0.5892439   0.3535474), wk =   0.0023148
        k(  781) = (  -0.2946228  -0.5303189   0.2946235), wk =   0.0023148
        k(  782) = (  -0.3535482  -0.4713939   0.2356997), wk =   0.0023148
        k(  783) = (  -0.3535494  -0.3535440   0.2357005), wk =   0.0023148
        k(  784) = (  -0.4124748  -0.2946190   0.1767766), wk =   0.0023148
        k(  785) = (  -0.4714002  -0.2356940   0.1178528), wk =   0.0023148
        k(  786) = (  -0.5303255  -0.1767689   0.0589290), wk =   0.0023148
        k(  787) = (  -0.5892509  -0.1178439   0.0000051), wk =   0.0023148
        k(  788) = (  -0.6481762  -0.0589189  -0.0589187), wk =   0.0023148
        k(  789) = (   0.0000027  -0.7070941   0.5892435), wk =   0.0023148
        k(  790) = (  -0.0589226  -0.6481691   0.5303197), wk =   0.0023148
        k(  791) = (  -0.1178480  -0.5892441   0.4713958), wk =   0.0023148
        k(  792) = (  -0.1767733  -0.5303191   0.4124720), wk =   0.0023148
        k(  793) = (  -0.2356987  -0.4713941   0.3535482), wk =   0.0023148
        k(  794) = (  -0.2946241  -0.4124690   0.2946243), wk =   0.0023148
        k(  795) = (   0.3535504   0.3535430  -0.3535501), wk =   0.0011574
        k(  796) = (   0.2946251   0.4124680  -0.4124740), wk =   0.0023148
        k(  797) = (   0.2356997   0.4713931  -0.4713978), wk =   0.0023148
        k(  798) = (   0.1767743   0.5303181  -0.5303216), wk =   0.0023148
        k(  799) = (   0.1178490   0.5892431  -0.5892455), wk =   0.0023148
        k(  800) = (   0.0589236   0.6481681  -0.6481693), wk =   0.0023148
        k(  801) = (   0.7071026  -0.0000071  -0.0000071), wk =   0.0011574
        k(  802) = (   0.4124745   0.4124679  -0.2946255), wk =   0.0023148
        k(  803) = (   0.3535491   0.4713929  -0.3535493), wk =   0.0023148
        k(  804) = (   0.2946238   0.5303179  -0.4124732), wk =   0.0023148
        k(  805) = (   0.2356984   0.5892429  -0.4713970), wk =   0.0023148
        k(  806) = (   0.1767731   0.6481679  -0.5303209), wk =   0.0023148
        k(  807) = (   0.1178477   0.7070930  -0.5892447), wk =   0.0023148
        k(  808) = (   0.7660267   0.0589177   0.0589175), wk =   0.0023148
        k(  809) = (   0.7071013   0.1178427  -0.0000063), wk =   0.0023148
        k(  810) = (   0.6481759   0.1767678  -0.0589302), wk =   0.0023148
        k(  811) = (   0.5892506   0.2356928  -0.1178540), wk =   0.0023148
        k(  812) = (   0.5303252   0.2946178  -0.1767778), wk =   0.0023148
        k(  813) = (   0.4713999   0.3535428  -0.2357017), wk =   0.0023148
        k(  814) = (   0.4713986   0.4713927  -0.2357009), wk =   0.0023148
        k(  815) = (   0.4124732   0.5303177  -0.2946247), wk =   0.0023148
        k(  816) = (   0.3535479   0.5892427  -0.3535485), wk =   0.0023148
        k(  817) = (   0.2946225   0.6481677  -0.4124724), wk =   0.0023148
        k(  818) = (   0.2356971   0.7070928  -0.4713962), wk =   0.0023148
        k(  819) = (   0.1767718   0.7660178  -0.5303201), wk =   0.0023148
        k(  820) = (   0.8249508   0.1178425   0.1178422), wk =   0.0023148
        k(  821) = (   0.7660254   0.1767676   0.0589183), wk =   0.0023148
        k(  822) = (   0.7071000   0.2356926  -0.0000055), wk =   0.0023148
        k(  823) = (   0.6481747   0.2946176  -0.0589294), wk =   0.0023148
        k(  824) = (   0.5892493   0.3535426  -0.1178532), wk =   0.0023148
        k(  825) = (   0.5303239   0.4124677  -0.1767770), wk =   0.0023148
        k(  826) = (   0.5303227   0.5303175  -0.1767762), wk =   0.0023148
        k(  827) = (   0.4713973   0.5892425  -0.2357001), wk =   0.0023148
        k(  828) = (   0.4124719   0.6481676  -0.2946239), wk =   0.0023148
        k(  829) = (   0.3535466   0.7070926  -0.3535478), wk =   0.0023148
        k(  830) = (   0.2946212   0.7660176  -0.4124716), wk =   0.0023148
        k(  831) = (   0.2356959   0.8249426  -0.4713954), wk =   0.0023148
        k(  832) = (   0.8838748   0.1767674   0.1767668), wk =   0.0023148
        k(  833) = (   0.8249495   0.2356924   0.1178430), wk =   0.0023148
        k(  834) = (   0.7660241   0.2946174   0.0589191), wk =   0.0023148
        k(  835) = (   0.7070987   0.3535424  -0.0000047), wk =   0.0023148
        k(  836) = (   0.6481734   0.4124675  -0.0589286), wk =   0.0023148
        k(  837) = (   0.5892480   0.4713925  -0.1178524), wk =   0.0023148
        k(  838) = (   0.5892467   0.5892423  -0.1178516), wk =   0.0023148
        k(  839) = (   0.5303214   0.6481674  -0.1767754), wk =   0.0023148
        k(  840) = (   0.4713960   0.7070924  -0.2356993), wk =   0.0023148
        k(  841) = (   0.4124707   0.7660174  -0.2946231), wk =   0.0023148
        k(  842) = (   0.3535453   0.8249424  -0.3535470), wk =   0.0023148
        k(  843) = (   0.2946199   0.8838674  -0.4124708), wk =   0.0023148
        k(  844) = (   0.9427989   0.2356922   0.2356914), wk =   0.0023148
        k(  845) = (   0.8838736   0.2946172   0.1767676), wk =   0.0023148
        k(  846) = (   0.8249482   0.3535422   0.1178437), wk =   0.0023148
        k(  847) = (   0.7660228   0.4124673   0.0589199), wk =   0.0023148
        k(  848) = (   0.7070975   0.4713923  -0.0000039), wk =   0.0023148
        k(  849) = (   0.6481721   0.5303173  -0.0589278), wk =   0.0023148
        k(  850) = (   0.6481708   0.6481672  -0.0589270), wk =   0.0023148
        k(  851) = (   0.5892455   0.7070922  -0.1178508), wk =   0.0023148
        k(  852) = (   0.5303201   0.7660172  -0.1767746), wk =   0.0023148
        k(  853) = (   0.4713947   0.8249422  -0.2356985), wk =   0.0023148
        k(  854) = (   0.4124694   0.8838672  -0.2946223), wk =   0.0023148
        k(  855) = (   0.3535440   0.9427923  -0.3535462), wk =   0.0023148
        k(  856) = (   1.0017230   0.2946170   0.2946161), wk =   0.0023148
        k(  857) = (   0.9427976   0.3535420   0.2356922), wk =   0.0023148
        k(  858) = (   0.8838723   0.4124671   0.1767684), wk =   0.0023148
        k(  859) = (   0.8249469   0.4713921   0.1178445), wk =   0.0023148
        k(  860) = (   0.7660215   0.5303171   0.0589207), wk =   0.0023148
        k(  861) = (   0.7070962   0.5892421  -0.0000031), wk =   0.0023148
        k(  862) = (   0.0000059  -0.0000059  -0.7070979), wk =   0.0011574
        k(  863) = (  -0.0589194   0.0589191  -0.7660218), wk =   0.0023148
        k(  864) = (  -0.1178448   0.1178441  -0.8249456), wk =   0.0023148
        k(  865) = (  -0.1767702   0.1767691  -0.8838694), wk =   0.0023148
        k(  866) = (  -0.2356955   0.2356942  -0.9427933), wk =   0.0023148
        k(  867) = (  -0.2946209   0.2946192  -1.0017171), wk =   0.0023148
        k(  868) = (   0.3535581  -0.3535561  -0.3535549), wk =   0.0011574

                       cryst. coord.
        k(    1) = (   0.0000000   0.0000000   0.0000000), wk =   0.0011574
        k(    2) = (   0.0000000   0.0000000   0.0833333), wk =   0.0023148
        k(    3) = (   0.0000000   0.0000000   0.1666667), wk =   0.0023148
        k(    4) = (   0.0000000  -0.0000000   0.2500000), wk =   0.0023148
        k(    5) = (   0.0000000   0.0000000   0.3333333), wk =   0.0023148
        k(    6) = (   0.0000000   0.0000000   0.4166667), wk =   0.0023148
        k(    7) = (   0.0000000   0.0000000  -0.5000000), wk =   0.0011574
        k(    8) = (   0.0000000   0.0833333   0.0000000), wk =   0.0023148
        k(    9) = (   0.0000000   0.0833333   0.0833333), wk =   0.0023148
        k(   10) = (   0.0000000   0.0833333   0.1666667), wk =   0.0023148
        k(   11) = (   0.0000000   0.0833333   0.2500000), wk =   0.0023148
        k(   12) = (   0.0000000   0.0833333   0.3333333), wk =   0.0023148
        k(   13) = (   0.0000000   0.0833333   0.4166667), wk =   0.0023148
        k(   14) = (   0.0000000   0.0833333  -0.5000000), wk =   0.0023148
        k(   15) = (   0.0000000   0.0833333  -0.4166667), wk =   0.0023148
        k(   16) = (   0.0000000   0.0833333  -0.3333333), wk =   0.0023148
        k(   17) = (   0.0000000   0.0833333  -0.2500000), wk =   0.0023148
        k(   18) = (   0.0000000   0.0833333  -0.1666667), wk =   0.0023148
        k(   19) = (   0.0000000   0.0833333  -0.0833333), wk =   0.0023148
        k(   20) = (   0.0000000   0.1666667   0.0000000), wk =   0.0023148
        k(   21) = (   0.0000000   0.1666667   0.0833333), wk =   0.0023148
        k(   22) = (   0.0000000   0.1666667   0.1666667), wk =   0.0023148
        k(   23) = (   0.0000000   0.1666667   0.2500000), wk =   0.0023148
        k(   24) = (   0.0000000   0.1666667   0.3333333), wk =   0.0023148
        k(   25) = (   0.0000000   0.1666667   0.4166667), wk =   0.0023148
        k(   26) = (   0.0000000   0.1666667  -0.5000000), wk =   0.0023148
        k(   27) = (   0.0000000   0.1666667  -0.4166667), wk =   0.0023148
        k(   28) = (   0.0000000   0.1666667  -0.3333333), wk =   0.0023148
        k(   29) = (   0.0000000   0.1666667  -0.2500000), wk =   0.0023148
        k(   30) = (   0.0000000   0.1666667  -0.1666667), wk =   0.0023148
        k(   31) = (  -0.0000000   0.1666667  -0.0833333), wk =   0.0023148
        k(   32) = (   0.0000000   0.2500000   0.0000000), wk =   0.0023148
        k(   33) = (   0.0000000   0.2500000   0.0833333), wk =   0.0023148
        k(   34) = (   0.0000000   0.2500000   0.1666667), wk =   0.0023148
        k(   35) = (   0.0000000   0.2500000   0.2500000), wk =   0.0023148
        k(   36) = (   0.0000000   0.2500000   0.3333333), wk =   0.0023148
        k(   37) = (   0.0000000   0.2500000   0.4166667), wk =   0.0023148
        k(   38) = (  -0.0000000   0.2500000  -0.5000000), wk =   0.0023148
        k(   39) = (   0.0000000   0.2500000  -0.4166667), wk =   0.0023148
        k(   40) = (   0.0000000   0.2500000  -0.3333333), wk =   0.0023148
        k(   41) = (   0.0000000   0.2500000  -0.2500000), wk =   0.0023148
        k(   42) = (  -0.0000000   0.2500000  -0.1666667), wk =   0.0023148
        k(   43) = (   0.0000000   0.2500000  -0.0833333), wk =   0.0023148
        k(   44) = (   0.0000000   0.3333333   0.0000000), wk =   0.0023148
        k(   45) = (   0.0000000   0.3333333   0.0833333), wk =   0.0023148
        k(   46) = (   0.0000000   0.3333333   0.1666667), wk =   0.0023148
        k(   47) = (   0.0000000   0.3333333   0.2500000), wk =   0.0023148
        k(   48) = (   0.0000000   0.3333333   0.3333333), wk =   0.0023148
        k(   49) = (   0.0000000   0.3333333   0.4166667), wk =   0.0023148
        k(   50) = (   0.0000000   0.3333333  -0.5000000), wk =   0.0023148
        k(   51) = (   0.0000000   0.3333333  -0.4166667), wk =   0.0023148
        k(   52) = (   0.0000000   0.3333333  -0.3333333), wk =   0.0023148
        k(   53) = (   0.0000000   0.3333333  -0.2500000), wk =   0.0023148
        k(   54) = (   0.0000000   0.3333333  -0.1666667), wk =   0.0023148
        k(   55) = (   0.0000000   0.3333333  -0.0833333), wk =   0.0023148
        k(   56) = (  -0.0000000   0.4166667  -0.0000000), wk =   0.0023148
        k(   57) = (   0.0000000   0.4166667   0.0833333), wk =   0.0023148
        k(   58) = (  -0.0000000   0.4166667   0.1666667), wk =   0.0023148
        k(   59) = (  -0.0000000   0.4166667   0.2500000), wk =   0.0023148
        k(   60) = (  -0.0000000   0.4166667   0.3333333), wk =   0.0023148
        k(   61) = (  -0.0000000   0.4166667   0.4166667), wk =   0.0023148
        k(   62) = (   0.0000000   0.4166667  -0.5000000), wk =   0.0023148
        k(   63) = (  -0.0000000   0.4166667  -0.4166667), wk =   0.0023148
        k(   64) = (   0.0000000   0.4166667  -0.3333333), wk =   0.0023148
        k(   65) = (   0.0000000   0.4166667  -0.2500000), wk =   0.0023148
        k(   66) = (   0.0000000   0.4166667  -0.1666667), wk =   0.0023148
        k(   67) = (  -0.0000000   0.4166667  -0.0833333), wk =   0.0023148
        k(   68) = (  -0.0000000  -0.5000000  -0.0000000), wk =   0.0011574
        k(   69) = (  -0.0000000  -0.5000000   0.0833333), wk =   0.0023148
        k(   70) = (  -0.0000000  -0.5000000   0.1666667), wk =   0.0023148
        k(   71) = (  -0.0000000  -0.5000000   0.2500000), wk =   0.0023148
        k(   72) = (   0.0000000  -0.5000000   0.3333333), wk =   0.0023148
        k(   73) = (   0.0000000  -0.5000000   0.4166667), wk =   0.0023148
        k(   74) = (  -0.0000000  -0.5000000  -0.5000000), wk =   0.0011574
        k(   75) = (   0.0833333   0.0000000   0.0000000), wk =   0.0023148
        k(   76) = (   0.0833333  -0.0000000   0.0833333), wk =   0.0023148
        k(   77) = (   0.0833333  -0.0000000   0.1666667), wk =   0.0023148
        k(   78) = (   0.0833333   0.0000000   0.2500000), wk =   0.0023148
        k(   79) = (   0.0833333  -0.0000000   0.3333333), wk =   0.0023148
        k(   80) = (   0.0833333   0.0000000   0.4166667), wk =   0.0023148
        k(   81) = (   0.0833333   0.0000000  -0.5000000), wk =   0.0023148
        k(   82) = (   0.0833333   0.0000000  -0.4166667), wk =   0.0023148
        k(   83) = (   0.0833333  -0.0000000  -0.3333333), wk =   0.0023148
        k(   84) = (   0.0833333   0.0000000  -0.2500000), wk =   0.0023148
        k(   85) = (   0.0833333  -0.0000000  -0.1666667), wk =   0.0023148
        k(   86) = (   0.0833333   0.0000000  -0.0833333), wk =   0.0023148
        k(   87) = (   0.0833333   0.0833333  -0.0000000), wk =   0.0023148
        k(   88) = (   0.0833333   0.0833333   0.0833333), wk =   0.0023148
        k(   89) = (   0.0833333   0.0833333   0.1666667), wk =   0.0023148
        k(   90) = (   0.0833333   0.0833333   0.2500000), wk =   0.0023148
        k(   91) = (   0.0833333   0.0833333   0.3333333), wk =   0.0023148
        k(   92) = (   0.0833333   0.0833333   0.4166667), wk =   0.0023148
        k(   93) = (   0.0833333   0.0833333  -0.5000000), wk =   0.0023148
        k(   94) = (   0.0833333   0.0833333  -0.4166667), wk =   0.0023148
        k(   95) = (   0.0833333   0.0833333  -0.3333333), wk =   0.0023148
        k(   96) = (   0.0833333   0.0833333  -0.2500000), wk =   0.0023148
        k(   97) = (   0.0833333   0.0833333  -0.1666667), wk =   0.0023148
        k(   98) = (   0.0833333   0.0833333  -0.0833333), wk =   0.0023148
        k(   99) = (   0.0833333   0.1666667   0.0000000), wk =   0.0023148
[...]
     1.0000  -0.0007  -0.0000  -0.0000  -0.0000  -0.0000  -0.0000

          k = 0.6482 0.6482-0.0589 (  2313 PWs)   bands (ev):

   -10.4691  -1.1771   2.2322   3.2509   4.6683   7.4136  15.4986  16.8457
    17.0057  23.0123  23.0190  25.0477  25.1414  25.5322  25.7225

     occupation numbers 
     1.0000   1.0000   1.0000   1.0000   1.0000   1.0000   1.0000   1.0000
     1.0000  -0.0000  -0.0000  -0.0000  -0.0000  -0.0000  -0.0000

          k = 0.5892 0.7071-0.1179 (  2325 PWs)   bands (ev):

   -10.5842  -1.0228   2.4850   2.5809   5.6385   7.9162  14.5203  16.2936
    17.0660  21.6807  23.1757  24.2097  25.2963  25.3523  25.9920

     occupation numbers 
     1.0000   1.0000   1.0000   1.0000   1.0000   1.0000   1.0000   1.0000
     1.0000  -0.0000  -0.0000  -0.0000  -0.0000  -0.0000  -0.0000

          k = 0.5303 0.7660-0.1768 (  2324 PWs)   bands (ev):

   -10.7246  -0.9581   1.9456   3.0717   6.6981   9.2556  12.8398  15.4923
    16.8338  20.0785  21.7675  24.1262  25.1166  25.5766  26.1826

     occupation numbers 
     1.0000   1.0000   1.0000   1.0000   1.0000   1.0000   1.0000   1.0000
     1.0000   1.0002  -0.0000  -0.0000  -0.0000  -0.0000  -0.0000

          k = 0.4714 0.8249-0.2357 (  2318 PWs)   bands (ev):

   -10.8472  -1.3042   2.1860   3.8495   7.6297  10.1228  11.9711  14.2379
    16.2952  18.5681  20.6835  24.0645  25.0481  25.7802  26.1950

     occupation numbers 
     1.0000   1.0000   1.0000   1.0000   1.0000   1.0000   1.0000   1.0000
     1.0000   1.0000  -0.0236  -0.0000  -0.0000  -0.0000  -0.0000

          k = 0.4125 0.8839-0.2946 (  2325 PWs)   bands (ev):

   -10.9217  -1.8142   3.0064   4.7109   8.4617   8.9119  12.6133  13.5996
    14.8770  18.4446  20.0002  23.8471  25.1880  25.9273  26.1796

     occupation numbers 
     1.0000   1.0000   1.0000   1.0000   1.0000   1.0000   1.0000   1.0000
     1.0000   1.0000   1.0000  -0.0000  -0.0000  -0.0000  -0.0000

          k = 0.3535 0.9428-0.3535 (  2328 PWs)   bands (ev):

   -10.9349  -2.1819   3.9604   5.2021   7.4845   9.5172  11.9000  13.3247
    14.4883  19.5873  19.5989  23.2928  25.3993  25.8130  26.0302

     occupation numbers 
     1.0000   1.0000   1.0000   1.0000   1.0000   1.0000   1.0000   1.0000
     1.0000   1.0000   1.0000  -0.0000  -0.0000  -0.0000  -0.0000

          k = 1.0017 0.2946 0.2946 (  2322 PWs)   bands (ev):

   -10.8885  -2.2896   4.0665   5.0281   7.4603   9.4218  12.0576  13.1672
    14.6575  19.2417  20.4942  23.0083  25.3094  25.8227  26.0180

     occupation numbers 
     1.0000   1.0000   1.0000   1.0000   1.0000   1.0000   1.0000   1.0000
     1.0000   1.0000   0.3370  -0.0000  -0.0000  -0.0000  -0.0000

          k = 0.9428 0.3535 0.2357 (  2318 PWs)   bands (ev):

   -10.7940  -2.1023   2.9314   4.6178   8.4864   8.6814  12.6026  14.2922
    14.7689  18.2721  20.3070  23.9190  25.7553  25.7714  25.9841

     occupation numbers 
     1.0000   1.0000   1.0000   1.0000   1.0000   1.0000   1.0000   1.0000
     1.0000   1.0000   1.0351  -0.0000  -0.0000  -0.0000  -0.0000

          k = 0.8839 0.4125 0.1768 (  2316 PWs)   bands (ev):

   -10.6707  -1.6397   1.7582   3.8312   7.7511  10.0426  13.1235  13.8263
    16.3457  17.7843  20.6618  24.3903  25.6699  25.8688  26.1989

     occupation numbers 
     1.0000   1.0000   1.0000   1.0000   1.0000   1.0000   1.0000   1.0000
     1.0000   1.0000  -0.0307  -0.0000  -0.0000  -0.0000  -0.0000

          k = 0.8249 0.4714 0.1178 (  2310 PWs)   bands (ev):

   -10.5447  -1.0585   0.9518   3.0899   6.9412  10.5947  12.6920  14.7604
    16.7915  19.2916  21.5246  24.6887  25.5571  25.7597  26.2096

     occupation numbers 
     1.0000   1.0000   1.0000   1.0000   1.0000   1.0000   1.0000   1.0000
     1.0000   1.0000  -0.0000  -0.0000  -0.0000  -0.0000  -0.0000

          k = 0.7660 0.5303 0.0589 (  2317 PWs)   bands (ev):

   -10.4497  -0.9173   1.1412   2.5620   6.2164   9.0469  14.2429  15.4081
    17.2549  20.8225  22.8796  24.8944  25.4398  25.6399  26.0117

     occupation numbers 
     1.0000   1.0000   1.0000   1.0000   1.0000   1.0000   1.0000   1.0000
     1.0000  -0.0007  -0.0000  -0.0000  -0.0000  -0.0000  -0.0000

          k = 0.7071 0.5892-0.0000 (  2324 PWs)   bands (ev):

   -10.4192  -1.1338   2.0892   2.4392   5.3713   7.7790  15.4416  16.0993
    17.4227  22.0068  23.9543  24.5757  25.4328  25.5520  25.7040

     occupation numbers 
     1.0000   1.0000   1.0000   1.0000   1.0000   1.0000   1.0000   1.0000
     1.0000  -0.0000  -0.0000  -0.0000  -0.0000  -0.0000  -0.0000

          k = 0.0000-0.0000-0.7071 (  2298 PWs)   bands (ev):

   -10.4296  -1.2990   3.1507   3.1510   3.8827   6.8033  15.9376  17.2565
    17.2568  23.9994  23.9999  24.4154  24.7837  25.5092  25.5522

     occupation numbers 
     1.0000   1.0000   1.0000   1.0000   1.0000   1.0000   1.0000   1.0000
     1.0000  -0.0000  -0.0000  -0.0000  -0.0000  -0.0000  -0.0000

          k =-0.0589 0.0589-0.7660 (  2313 PWs)   bands (ev):

   -10.4691  -1.1771   2.2325   3.2506   4.6679   7.4139  15.4984  16.8457
    17.0058  23.0126  23.0186  25.0478  25.1414  25.5323  25.7199

     occupation numbers 
     1.0000   1.0000   1.0000   1.0000   1.0000   1.0000   1.0000   1.0000
     1.0000  -0.0000  -0.0000  -0.0000  -0.0000  -0.0000  -0.0000

          k =-0.1178 0.1178-0.8249 (  2322 PWs)   bands (ev):

   -10.5712  -1.0148   1.4408   3.5418   5.4893   8.9432  14.1575  15.7797
    16.7374  21.1428  22.0233  24.8411  25.1568  25.6275  26.1724

     occupation numbers 
     1.0000   1.0000   1.0000   1.0000   1.0000   1.0000   1.0000   1.0000
     1.0000  -0.0000  -0.0000  -0.0000  -0.0000  -0.0000  -0.0000

          k =-0.1768 0.1768-0.8839 (  2319 PWs)   bands (ev):

   -10.6979  -1.3142   1.6559   3.9937   6.3781  10.4679  12.7806  14.4109
    16.4079  19.1314  21.2886  24.3378  25.1891  25.7641  26.2554

     occupation numbers 
     1.0000   1.0000   1.0000   1.0000   1.0000   1.0000   1.0000   1.0000
     1.0000   1.0000  -0.0000  -0.0000  -0.0000  -0.0000  -0.0000

          k =-0.2357 0.2357-0.9428 (  2318 PWs)   bands (ev):

   -10.8120  -1.8730   2.6824   4.5368   7.4123   9.8014  13.0725  13.5347
    15.1658  18.3525  20.7871  23.7549  25.2423  25.9086  26.2052

     occupation numbers 
     1.0000   1.0000   1.0000   1.0000   1.0000   1.0000   1.0000   1.0000
     1.0000   1.0000  -0.0022  -0.0000  -0.0000  -0.0000  -0.0000

          k =-0.2946 0.2946-1.0017 (  2322 PWs)   bands (ev):

   -10.8885  -2.2896   4.0664   5.0282   7.4603   9.4218  12.0576  13.1672
    14.6575  19.2418  20.4941  23.0082  25.3093  25.8226  26.0182

     occupation numbers 
     1.0000   1.0000   1.0000   1.0000   1.0000   1.0000   1.0000   1.0000
     1.0000   1.0000   0.3376  -0.0000  -0.0000  -0.0000  -0.0000

          k = 0.3536-0.3536-0.3536 (  2332 PWs)   bands (ev):

   -10.9151  -2.4374   5.2390   5.2391   6.3141  10.5108  11.6655  11.6655
    14.9969  20.3975  20.3976  22.1700  25.3461  25.3463  26.0288

     occupation numbers 
     1.0000   1.0000   1.0000   1.0000   1.0000   1.0000   1.0000   1.0000
     1.0000   0.8777   0.8772  -0.0000  -0.0000  -0.0000  -0.0000

     the Fermi energy is    20.4674 ev

!    total energy              =    -136.05450752 Ry
     estimated scf accuracy    <          3.5E-11 Ry
     smearing contrib. (-TS)   =       0.00006359 Ry
     internal energy E=F+TS    =    -136.05457111 Ry

     The total energy is F=E-TS. E is the sum of the following terms:
     one-electron contribution =      33.14799559 Ry
     hartree contribution      =       2.35150841 Ry
     xc contribution           =     -82.55454908 Ry
     ewald contribution        =     -88.99952603 Ry

     convergence has been achieved in  15 iterations

     Forces acting on atoms (cartesian axes, Ry/au):

     atom    1 type  1   force =     0.00000000    0.00000000   -0.00000000
     atom    2 type  2   force =     0.00000833   -0.00000785   -0.00000749
     atom    3 type  2   force =    -0.00000833    0.00000785    0.00000749
     atom    4 type  2   force =    -0.00000984    0.00000908    0.00000918
     atom    5 type  2   force =     0.00000984   -0.00000908   -0.00000918
     atom    6 type  2   force =    -0.00000792    0.00001029   -0.00002577
     atom    7 type  2   force =     0.00000792   -0.00001029    0.00002577
     atom    8 type  2   force =     0.00002458    0.00000969    0.00001079
     atom    9 type  2   force =    -0.00002458   -0.00000969   -0.00001079
     atom   10 type  2   force =    -0.00000767   -0.00002562    0.00001117
     atom   11 type  2   force =     0.00000767    0.00002562   -0.00001117
     The non-local contrib.  to forces
     atom    1 type  1   force =     0.00000000    0.00000000    0.00000000
     atom    2 type  2   force =    -0.00000578    0.00000589    0.00000595
     atom    3 type  2   force =     0.00000578   -0.00000589   -0.00000595
     atom    4 type  2   force =     0.00307571   -0.00307580   -0.00307584
     atom    5 type  2   force =    -0.00307571    0.00307580    0.00307584
     atom    6 type  2   force =    -0.00307249    0.00307247   -0.00307412
     atom    7 type  2   force =     0.00307249   -0.00307247    0.00307412
     atom    8 type  2   force =     0.00307398    0.00307246    0.00307242
     atom    9 type  2   force =    -0.00307398   -0.00307246   -0.00307242
     atom   10 type  2   force =    -0.00307247   -0.00307407    0.00307244
     atom   11 type  2   force =     0.00307247    0.00307407   -0.00307244
     The ionic contribution  to forces
     atom    1 type  1   force =    -0.00000000    0.00000000    0.00000000
     atom    2 type  2   force =     0.00011023   -0.00010667   -0.00010407
     atom    3 type  2   force =    -0.00011023    0.00010667    0.00010407
     atom    4 type  2   force =    -0.04393853    0.04393542    0.04393629
     atom    5 type  2   force =     0.04393853   -0.04393542   -0.04393629
     atom    6 type  2   force =     0.04387908   -0.04386628    0.04382682
     atom    7 type  2   force =    -0.04387908    0.04386628   -0.04382682
     atom    8 type  2   force =    -0.04383436   -0.04387184   -0.04386559
     atom    9 type  2   force =     0.04383436    0.04387184    0.04386559
     atom   10 type  2   force =     0.04388129    0.04382819   -0.04386255
     atom   11 type  2   force =    -0.04388129   -0.04382819    0.04386255
     The local contribution  to forces
     atom    1 type  1   force =     0.00000000    0.00000001   -0.00000001
     atom    2 type  2   force =    -0.00009612    0.00009294    0.00009062
     atom    3 type  2   force =     0.00009612   -0.00009294   -0.00009062
     atom    4 type  2   force =     0.04085275   -0.04085030   -0.04085104
     atom    5 type  2   force =    -0.04085275    0.04085030    0.04085104
     atom    6 type  2   force =    -0.04081427    0.04080387   -0.04077823
     atom    7 type  2   force =     0.04081427   -0.04080387    0.04077823
     atom    8 type  2   force =     0.04078472    0.04080884    0.04080372
     atom    9 type  2   force =    -0.04078472   -0.04080884   -0.04080372
     atom   10 type  2   force =    -0.04081625   -0.04077950    0.04080105
     atom   11 type  2   force =     0.04081625    0.04077950   -0.04080105
     The core correction contribution to forces
     atom    1 type  1   force =     0.00000000    0.00000000    0.00000000
     atom    2 type  2   force =     0.00000000    0.00000000    0.00000000
     atom    3 type  2   force =     0.00000000    0.00000000    0.00000000
     atom    4 type  2   force =     0.00000000    0.00000000    0.00000000
     atom    5 type  2   force =     0.00000000    0.00000000    0.00000000
     atom    6 type  2   force =     0.00000000    0.00000000    0.00000000
     atom    7 type  2   force =     0.00000000    0.00000000    0.00000000
     atom    8 type  2   force =     0.00000000    0.00000000    0.00000000
     atom    9 type  2   force =     0.00000000    0.00000000    0.00000000
     atom   10 type  2   force =     0.00000000    0.00000000    0.00000000
     atom   11 type  2   force =     0.00000000    0.00000000    0.00000000
     The Hubbard contrib.    to forces
     atom    1 type  1   force =     0.00000000    0.00000000    0.00000000
     atom    2 type  2   force =     0.00000000    0.00000000    0.00000000
     atom    3 type  2   force =     0.00000000    0.00000000    0.00000000
     atom    4 type  2   force =     0.00000000    0.00000000    0.00000000
     atom    5 type  2   force =     0.00000000    0.00000000    0.00000000
     atom    6 type  2   force =     0.00000000    0.00000000    0.00000000
     atom    7 type  2   force =     0.00000000    0.00000000    0.00000000
     atom    8 type  2   force =     0.00000000    0.00000000    0.00000000
     atom    9 type  2   force =     0.00000000    0.00000000    0.00000000
     atom   10 type  2   force =     0.00000000    0.00000000    0.00000000
     atom   11 type  2   force =     0.00000000    0.00000000    0.00000000
     The SCF correction term to forces
     atom    1 type  1   force =    -0.00000000   -0.00000001    0.00000001
     atom    2 type  2   force =    -0.00000000   -0.00000001   -0.00000000
     atom    3 type  2   force =     0.00000000    0.00000001    0.00000000
     atom    4 type  2   force =     0.00000023   -0.00000023   -0.00000024
     atom    5 type  2   force =    -0.00000023    0.00000024    0.00000024
     atom    6 type  2   force =    -0.00000024    0.00000023   -0.00000024
     atom    7 type  2   force =     0.00000024   -0.00000023    0.00000024
     atom    8 type  2   force =     0.00000024    0.00000023    0.00000024
     atom    9 type  2   force =    -0.00000024   -0.00000023   -0.00000024
     atom   10 type  2   force =    -0.00000023   -0.00000024    0.00000023
     atom   11 type  2   force =     0.00000023    0.00000024   -0.00000023

     Total force =     0.000077     Total SCF correction =     0.000001


     Computing stress (Cartesian axis) and pressure

          total   stress  (Ry/bohr**3)                   (kbar)     P=     2499.81
   0.01699370  -0.00000050  -0.00000042         2499.86       -0.07       -0.06
  -0.00000050   0.01699329   0.00000031           -0.07     2499.80        0.05
  -0.00000042   0.00000031   0.01699316           -0.06        0.05     2499.78

     kinetic stress (kbar)  19908.97     -0.05     -0.04
                               -0.05  19908.91      0.03
                               -0.04      0.03  19908.89

     local   stress (kbar)   4630.25     -0.15     -0.18
                               -0.15   4630.36      0.21
                               -0.18      0.21   4630.39

     nonloc. stress (kbar)   6155.72      0.02      0.01
                                0.02   6155.74     -0.01
                                0.01     -0.01   6155.74

     hartree stress (kbar)    601.31      0.04      0.04
                                0.04    601.29     -0.05
                                0.04     -0.05    601.28

     exc-cor stress (kbar)  43073.07     -0.00     -0.00
                               -0.00  43073.07      0.00
                               -0.00      0.00  43073.07

     corecor stress (kbar) -49111.92     -0.00     -0.00
                               -0.00 -49111.92      0.00
                               -0.00      0.00 -49111.92

     ewald   stress (kbar) -22757.55      0.09      0.11
                                0.09 -22757.65     -0.14
                                0.11     -0.14 -22757.68

     hubbard stress (kbar)      0.00      0.00      0.00
                                0.00      0.00      0.00
                                0.00      0.00      0.00

     DFT-D   stress (kbar)      0.00      0.00      0.00
                                0.00      0.00      0.00
                                0.00      0.00      0.00

     XDM     stress (kbar)      0.00      0.00      0.00
                                0.00      0.00      0.00
                                0.00      0.00      0.00

     dft-nl  stress (kbar)      0.00      0.00      0.00
                                0.00      0.00      0.00
                                0.00      0.00      0.00

     TS-vdW  stress (kbar)      0.00      0.00      0.00
                                0.00      0.00      0.00
                                0.00      0.00      0.00



     Writing output data file ./out/lah10.save/

     init_run     :      8.51s CPU      8.98s WALL (       1 calls)
     electrons    :    221.82s CPU    232.68s WALL (       1 calls)
     forces       :      2.42s CPU      2.54s WALL (       1 calls)
     stress       :      4.53s CPU      4.70s WALL (       1 calls)

     Called by init_run:
     wfcinit      :      7.77s CPU      8.17s WALL (       1 calls)
     wfcinit:atom :      0.08s CPU      0.08s WALL (     868 calls)
     wfcinit:wfcr :      7.28s CPU      7.68s WALL (     868 calls)
     potinit      :      0.20s CPU      0.20s WALL (       1 calls)
     hinit0       :      0.41s CPU      0.42s WALL (       1 calls)

     Called by electrons:
     c_bands      :    194.94s CPU    202.90s WALL (      16 calls)
     sum_band     :     25.39s CPU     27.61s WALL (      16 calls)
     v_of_rho     :      0.15s CPU      0.17s WALL (      16 calls)
     v_h          :      0.01s CPU      0.01s WALL (      16 calls)
     v_xc         :      0.16s CPU      0.18s WALL (      18 calls)
     newd         :      1.41s CPU      2.07s WALL (      16 calls)
     mix_rho      :      0.02s CPU      0.02s WALL (      16 calls)

     Called by c_bands:
     init_us_2    :      3.34s CPU      3.50s WALL (   30380 calls)
     cegterg      :    184.13s CPU    191.72s WALL (   13888 calls)

     Called by sum_band:
     sum_band:wei :      0.18s CPU      0.18s WALL (      16 calls)
     sum_band:loo :     23.74s CPU     25.29s WALL (      16 calls)
     sum_band:buf :      0.15s CPU      0.16s WALL (   13888 calls)
     sum_band:ini :      1.47s CPU      1.56s WALL (   13888 calls)
     sum_band:cal :      5.45s CPU      5.81s WALL (   13888 calls)
     sum_band:bec :      0.30s CPU      0.32s WALL (   13888 calls)
     addusdens    :      1.42s CPU      2.08s WALL (      16 calls)
     addusd:skk   :      0.00s CPU      0.01s WALL (      32 calls)
     addusd:dgemm :      0.14s CPU      0.60s WALL (      32 calls)
     addusd:qvan2 :      1.19s CPU      1.20s WALL (      32 calls)

     Called by *egterg:
     cdiaghg      :     14.15s CPU     14.72s WALL (   62679 calls)
     cegterg:over :     11.45s CPU     11.97s WALL (   49659 calls)
     cegterg:upda :      5.08s CPU      5.28s WALL (   49659 calls)
     cegterg:last :     11.30s CPU     11.72s WALL (   29910 calls)
     h_psi        :    127.98s CPU    133.35s WALL (   64415 calls)
     s_psi        :     14.21s CPU     14.85s WALL (   64415 calls)
     g_psi        :      0.76s CPU      0.79s WALL (   49659 calls)

     Called by h_psi:
     h_psi:calbec :     16.34s CPU     17.12s WALL (   64415 calls)
     vloc_psi     :     96.89s CPU    100.82s WALL (   64415 calls)
     add_vuspsi   :     14.22s CPU     14.89s WALL (   64415 calls)

     General routines
     calbec       :     23.35s CPU     24.57s WALL (   82643 calls)
     fft          :      0.15s CPU      0.17s WALL (     232 calls)
     ffts         :      0.01s CPU      0.01s WALL (      32 calls)
     fftw         :    101.28s CPU    105.72s WALL ( 1404700 calls)
     interpolate  :      0.01s CPU      0.01s WALL (      16 calls)

     Parallel routines
     fft_scatt_xy :     10.34s CPU     10.78s WALL ( 1404964 calls)
     fft_scatt_yz :     37.82s CPU     39.60s WALL ( 1404964 calls)

     PWSCF        :   3m58.73s CPU   4m11.97s WALL


   This run was terminated on:   2:44:33   4Jun2026            

=------------------------------------------------------------------------------=
   JOB DONE.
=------------------------------------------------------------------------------=
