
     Program PHONON v.6.7MaX starts on 31May2026 at 14: 7:11 

     This program is part of the open-source Quantum ESPRESSO suite
     for quantum simulation of materials; please cite
         "P. Giannozzi et al., J. Phys.:Condens. Matter 21 395502 (2009);
         "P. Giannozzi et al., J. Phys.:Condens. Matter 29 465901 (2017);
          URL http://www.quantum-espresso.org", 
     in publications or presentations arising from this work. More details at
     http://www.quantum-espresso.org/quote

     Parallel version (MPI), running on     6 processors

     MPI processes distributed on     1 nodes
     R & G space division:  proc/nbgrp/npool/nimage =       6
     Reading input from ph.in
     Message from routine ph_restart_set_filename :
     cannot open file for reading or writing
     Message from routine ph_restart_set_filename :
     cannot open file for reading or writing
     Run is not recoverable starting from scratch

     Reading xml data from directory:

     ./out/li2mgh16.save/
     file Mg.pbe-spnl-rrkjus_psl.1.0.0.UPF: wavefunction(s)  2P renormalized

     IMPORTANT: XC functional enforced from input :
     Exchange-correlation= PBE
                           (   1   4   3   4   0   0   0)
     Any further DFT definition will be discarded
     Please, verify this is what you really want


     Parallelization info
     --------------------
     sticks:   dense  smooth     PW     G-vecs:    dense   smooth      PW
     Min         445     223     66                15129     5357     867
     Max         447     225     67                15130     5358     869
     Sum        2677    1345    397                90777    32143    5209


     Check: negative core charge=   -0.000009
     Reading collected, re-writing distributed wavefunctions


     Dynamical matrices for ( 2, 2, 2)  uniform grid of q-points
     (   8 q-points):
       N         xq(1)         xq(2)         xq(3) 
       1   0.000000000   0.000000000   0.000000000
       2  -0.353553391  -0.353553391   0.353553391
       3  -0.353553391   0.353553391  -0.353553391
       4  -0.707106781   0.000000000   0.000000000
       5   0.353553391  -0.353553391  -0.353553391
       6   0.000000000  -0.707106781   0.000000000
       7   0.000000000   0.000000000  -0.707106781
       8  -0.353553391  -0.353553391  -0.353553391

     Saving dvscf to file. Distribute only q points, not irreducible represetations.

     Calculation of q =    0.0000000   0.0000000   0.0000000

     Li2MgH16 el-ph 2x2x2 q (RTSC clathrate electron_phonon=simple)             

     bravais-lattice index     =            0
     lattice parameter (alat)  =       8.9775  a.u.
     unit-cell volume          =     511.6301 (a.u.)^3
     number of atoms/cell      =           38
     number of atomic types    =            3
     kinetic-energy cut-off    =      60.0000  Ry
     charge density cut-off    =     480.0000  Ry
     convergence threshold     =      1.0E-14
     beta                      =       0.7000
     number of iterations used =            4
     Exchange-correlation= PBE
                           (   1   4   3   4   0   0   0)


     celldm(1)=    8.97753  celldm(2)=    0.00000  celldm(3)=    0.00000
     celldm(4)=    0.00000  celldm(5)=    0.00000  celldm(6)=    0.00000

     crystal axes: (cart. coord. in units of alat)
               a(1) = (  0.0000  0.7071  0.7071 )  
               a(2) = (  0.7071  0.0000  0.7071 )  
               a(3) = (  0.7071  0.7071  0.0000 )  

     reciprocal axes: (cart. coord. in units 2 pi/alat)
               b(1) = ( -0.7071  0.7071  0.7071 )  
               b(2) = (  0.7071 -0.7071  0.7071 )  
               b(3) = (  0.7071  0.7071 -0.7071 )  


     Atoms inside the unit cell: 

     Cartesian axes

     site n.  atom      mass           positions (alat units)
        1     Li   6.9410   tau(    1) = (    0.53033    0.88388    0.53033  )
        2     Li   6.9410   tau(    2) = (    0.53033    0.53033    0.88388  )
        3     Li   6.9410   tau(    3) = (    0.88388    0.53033    0.53033  )
        4     Li   6.9410   tau(    4) = (    0.88388    0.88388    0.88388  )
        5     Mg  24.3050   tau(    5) = (   -0.00000   -0.00000    0.00000  )
        6     Mg  24.3050   tau(    6) = (    0.35355    0.35355    0.35355  )
        7     H    1.0080   tau(    7) = (    0.94400    0.94400    1.17732  )
        8     H    1.0080   tau(    8) = (    1.17732    0.94400    0.94400  )
        9     H    1.0080   tau(    9) = (    0.94400    1.17732    0.94400  )
       10     H    1.0080   tau(   10) = (    0.82377    0.82377    0.59044  )
       11     H    1.0080   tau(   11) = (    0.82377    0.59044    0.82377  )
       12     H    1.0080   tau(   12) = (    0.59044    0.82377    0.82377  )
       13     H    1.0080   tau(   13) = (    1.17732    1.17732    1.17732  )
       14     H    1.0080   tau(   14) = (    0.59044    0.59044    0.59044  )
       15     H    1.0080   tau(   15) = (    0.61609    1.05463    0.79812  )
       16     H    1.0080   tau(   16) = (    0.79812    0.61609    1.05463  )
       17     H    1.0080   tau(   17) = (    1.05463    0.79812    0.61609  )
       18     H    1.0080   tau(   18) = (    0.71314    1.15168    0.96965  )
       19     H    1.0080   tau(   19) = (    1.15168    0.96965    0.71314  )
       20     H    1.0080   tau(   20) = (    0.96965    0.71314    1.15168  )
       21     H    1.0080   tau(   21) = (    1.15168    0.71314    0.96965  )
       22     H    1.0080   tau(   22) = (    0.96965    1.15168    0.71314  )
       23     H    1.0080   tau(   23) = (    0.71314    0.96965    1.15168  )
       24     H    1.0080   tau(   24) = (    1.05463    0.61609    0.79812  )
       25     H    1.0080   tau(   25) = (    0.61609    0.79812    1.05463  )
       26     H    1.0080   tau(   26) = (    0.79812    1.05463    0.61609  )
       27     H    1.0080   tau(   27) = (    0.79812    0.35959    0.79812  )
       28     H    1.0080   tau(   28) = (    0.35959    0.61609    0.61609  )
       29     H    1.0080   tau(   29) = (    1.40818    1.15168    1.15168  )
       30     H    1.0080   tau(   30) = (    0.96965    0.96965    1.40818  )
       31     H    1.0080   tau(   31) = (    0.96965    1.40818    0.96965  )
       32     H    1.0080   tau(   32) = (    0.79812    0.79812    0.35959  )
       33     H    1.0080   tau(   33) = (    0.61609    0.35959    0.61609  )
       34     H    1.0080   tau(   34) = (    1.40818    0.96965    0.96965  )
       35     H    1.0080   tau(   35) = (    1.15168    1.40818    1.15168  )
       36     H    1.0080   tau(   36) = (    0.35959    0.79812    0.79812  )
       37     H    1.0080   tau(   37) = (    0.61609    0.61609    0.35959  )
       38     H    1.0080   tau(   38) = (    1.15168    1.15168    1.40818  )

     Computing dynamical matrix for 
                    q = (   0.0000000   0.0000000   0.0000000 )

      2 Sym.Ops. (with q -> -q+G )


     G cutoff =  979.9311  (  15130 G-vectors)     FFT grid: ( 64, 64, 64)
     G cutoff =  489.9656  (   5358 G-vectors)  smooth grid: ( 45, 45, 45)

     number of k points=   260  Methfessel-Paxton smearing, width (Ry)=  0.0200

     PseudoPot. # 1 for Li read from file:
     ./pseudo/Li.pbe-s-rrkjus_psl.1.0.0.UPF
     MD5 check sum: a07f98b50cb2323aa4dab8f6b8331f41
     Pseudo is Ultrasoft, Zval =  3.0
     Generated using &quot;atomic&quot; code by A. Dal Corso  v.6.3MaX
     Using radial grid of 1017 points,  4 beta functions with: 
                l(1) =   0
                l(2) =   0
                l(3) =   1
                l(4) =   1
     Q(r) pseudized with 0 coefficients 


     PseudoPot. # 2 for Mg read from file:
     ./pseudo/Mg.pbe-spnl-rrkjus_psl.1.0.0.UPF
     MD5 check sum: 7bbac6cb09d08803af897bb2209b4f8d
     Pseudo is Ultrasoft + core correction, Zval = 10.0
     Generated using &quot;atomic&quot; code by A. Dal Corso  v.6.3
     Using radial grid of 1129 points,  4 beta functions with: 
                l(1) =   0
                l(2) =   0
                l(3) =   1
                l(4) =   1
     Q(r) pseudized with 0 coefficients 


     PseudoPot. # 3 for H  read from file:
     ./pseudo/H.pbe-rrkjus_psl.1.0.0.UPF
     MD5 check sum: af0d83a6ef17603a7b7645159cc407bf
     Pseudo is Ultrasoft, Zval =  1.0
     Generated using &quot;atomic&quot; code by A. Dal Corso  v.6.3MaX
     Using radial grid of  929 points,  2 beta functions with: 
                l(1) =   0
                l(2) =   0
     Q(r) pseudized with 0 coefficients 


     Mode symmetry, C_1 (1)     point group:


     Atomic displacements:
     There are  114 irreducible representations

     Representation     1      1 modes -  To be done

     Representation     2      1 modes -  To be done

     Representation     3      1 modes -  To be done

     Representation     4      1 modes -  To be done

     Representation     5      1 modes -  To be done

     Representation     6      1 modes -  To be done

     Representation     7      1 modes -  To be done

     Representation     8      1 modes -  To be done

     Representation     9      1 modes -  To be done

     Representation    10      1 modes -  To be done

     Representation    11      1 modes -  To be done

     Representation    12      1 modes -  To be done

     Representation    13      1 modes -  To be done

     Representation    14      1 modes -  To be done

     Representation    15      1 modes -  To be done

     Representation    16      1 modes -  To be done

     Representation    17      1 modes -  To be done

     Representation    18      1 modes -  To be done

     Representation    19      1 modes -  To be done

     Representation    20      1 modes -  To be done

     Representation    21      1 modes -  To be done

     Representation    22      1 modes -  To be done

     Representation    23      1 modes -  To be done

     Representation    24      1 modes -  To be done

     Representation    25      1 modes -  To be done

     Representation    26      1 modes -  To be done

     Representation    27      1 modes -  To be done

     Representation    28      1 modes -  To be done

     Representation    29      1 modes -  To be done

     Representation    30      1 modes -  To be done

     Representation    31      1 modes -  To be done

     Representation    32      1 modes -  To be done

     Representation    33      1 modes -  To be done

     Representation    34      1 modes -  To be done

     Representation    35      1 modes -  To be done

     Representation    36      1 modes -  To be done

     Representation    37      1 modes -  To be done

     Representation    38      1 modes -  To be done

     Representation    39      1 modes -  To be done

     Representation    40      1 modes -  To be done

     Representation    41      1 modes -  To be done

     Representation    42      1 modes -  To be done

     Representation    43      1 modes -  To be done

     Representation    44      1 modes -  To be done

     Representation    45      1 modes -  To be done

     Representation    46      1 modes -  To be done

     Representation    47      1 modes -  To be done

     Representation    48      1 modes -  To be done

     Representation    49      1 modes -  To be done

     Representation    50      1 modes -  To be done

     Representation    51      1 modes -  To be done

     Representation    52      1 modes -  To be done

     Representation    53      1 modes -  To be done

     Representation    54      1 modes -  To be done

     Representation    55      1 modes -  To be done

     Representation    56      1 modes -  To be done

     Representation    57      1 modes -  To be done

     Representation    58      1 modes -  To be done

     Representation    59      1 modes -  To be done

     Representation    60      1 modes -  To be done

     Representation    61      1 modes -  To be done

     Representation    62      1 modes -  To be done

     Representation    63      1 modes -  To be done

     Representation    64      1 modes -  To be done

     Representation    65      1 modes -  To be done

     Representation    66      1 modes -  To be done

     Representation    67      1 modes -  To be done

     Representation    68      1 modes -  To be done

     Representation    69      1 modes -  To be done

     Representation    70      1 modes -  To be done

     Representation    71      1 modes -  To be done

     Representation    72      1 modes -  To be done

     Representation    73      1 modes -  To be done

     Representation    74      1 modes -  To be done

     Representation    75      1 modes -  To be done

     Representation    76      1 modes -  To be done

     Representation    77      1 modes -  To be done

     Representation    78      1 modes -  To be done

     Representation    79      1 modes -  To be done

     Representation    80      1 modes -  To be done

     Representation    81      1 modes -  To be done

     Representation    82      1 modes -  To be done

     Representation    83      1 modes -  To be done

     Representation    84      1 modes -  To be done

     Representation    85      1 modes -  To be done

     Representation    86      1 modes -  To be done

     Representation    87      1 modes -  To be done

     Representation    88      1 modes -  To be done

     Representation    89      1 modes -  To be done

     Representation    90      1 modes -  To be done

     Representation    91      1 modes -  To be done

     Representation    92      1 modes -  To be done

     Representation    93      1 modes -  To be done

     Representation    94      1 modes -  To be done

     Representation    95      1 modes -  To be done

     Representation    96      1 modes -  To be done

     Representation    97      1 modes -  To be done

     Representation    98      1 modes -  To be done

     Representation    99      1 modes -  To be done

     Representation   100      1 modes -  To be done

     Representation   101      1 modes -  To be done

     Representation   102      1 modes -  To be done

     Representation   103      1 modes -  To be done

     Representation   104      1 modes -  To be done

     Representation   105      1 modes -  To be done

     Representation   106      1 modes -  To be done

     Representation   107      1 modes -  To be done

     Representation   108      1 modes -  To be done

     Representation   109      1 modes -  To be done

     Representation   110      1 modes -  To be done

     Representation   111      1 modes -  To be done

     Representation   112      1 modes -  To be done

     Representation   113      1 modes -  To be done

     Representation   114      1 modes -  To be done



     Alpha used in Ewald sum =   2.8000
     PHONON       :   7m38.06s CPU   8m 2.16s WALL



     Representation #   1 mode #   1

     Self-consistent Calculation

     Pert. #  1: Fermi energy shift (Ry) =    -8.4924E-07     0.0000E+00

      iter #   1 total cpu time :   571.5 secs   av.it.:   5.6
      thresh= 1.000E-02 alpha_mix =  0.700 |ddv_scf|^2 =  4.680E-07

     Pert. #  1: Fermi energy shift (Ry) =    -8.3799E-08     0.0000E+00

      iter #   2 total cpu time :   775.8 secs   av.it.:  17.0
      thresh= 6.841E-05 alpha_mix =  0.700 |ddv_scf|^2 =  3.020E-07

     Pert. #  1: Fermi energy shift (Ry) =     9.2218E-09     0.0000E+00

      iter #   3 total cpu time :   963.6 secs   av.it.:  16.3
      thresh= 5.495E-05 alpha_mix =  0.700 |ddv_scf|^2 =  2.803E-09

     Pert. #  1: Fermi energy shift (Ry) =     2.5957E-08     0.0000E+00

      iter #   4 total cpu time :  1170.8 secs   av.it.:  17.1
      thresh= 5.294E-06 alpha_mix =  0.700 |ddv_scf|^2 =  2.960E-10

     Pert. #  1: Fermi energy shift (Ry) =     7.2520E-09     0.0000E+00

      iter #   5 total cpu time :  1369.8 secs   av.it.:  16.6
      thresh= 1.720E-06 alpha_mix =  0.700 |ddv_scf|^2 =  9.324E-12

     Pert. #  1: Fermi energy shift (Ry) =     1.1846E-09     0.0000E+00

      iter #   6 total cpu time :  1559.1 secs   av.it.:  16.5
      thresh= 3.054E-07 alpha_mix =  0.700 |ddv_scf|^2 =  7.617E-13

     Pert. #  1: Fermi energy shift (Ry) =     2.5712E-10     0.0000E+00

      iter #   7 total cpu time :  1759.2 secs   av.it.:  16.8
      thresh= 8.728E-08 alpha_mix =  0.700 |ddv_scf|^2 =  9.438E-14

     Pert. #  1: Fermi energy shift (Ry) =    -1.9000E-10     0.0000E+00

      iter #   8 total cpu time :  1967.7 secs   av.it.:  16.9
      thresh= 3.072E-08 alpha_mix =  0.700 |ddv_scf|^2 =  1.172E-14

     Pert. #  1: Fermi energy shift (Ry) =    -1.4586E-10     0.0000E+00

      iter #   9 total cpu time :  2157.3 secs   av.it.:  16.5
      thresh= 1.083E-08 alpha_mix =  0.700 |ddv_scf|^2 =  3.529E-15

     End of self-consistent calculation

     Convergence has been achieved 


     Representation #   2 mode #   2

     Self-consistent Calculation

     Pert. #  1: Fermi energy shift (Ry) =     3.8395E-07     0.0000E+00

      iter #   1 total cpu time :  2254.2 secs   av.it.:   5.6
      thresh= 1.000E-02 alpha_mix =  0.700 |ddv_scf|^2 =  4.680E-07

     Pert. #  1: Fermi energy shift (Ry) =     3.2376E-07     0.0000E+00

      iter #   2 total cpu time :  2471.1 secs   av.it.:  17.0
      thresh= 6.841E-05 alpha_mix =  0.700 |ddv_scf|^2 =  3.020E-07

     Pert. #  1: Fermi energy shift (Ry) =     1.6812E-07     0.0000E+00

      iter #   3 total cpu time :  2658.6 secs   av.it.:  16.3
      thresh= 5.495E-05 alpha_mix =  0.700 |ddv_scf|^2 =  2.803E-09

     Pert. #  1: Fermi energy shift (Ry) =     2.3576E-08     0.0000E+00

      iter #   4 total cpu time :  2867.1 secs   av.it.:  17.1
      thresh= 5.294E-06 alpha_mix =  0.700 |ddv_scf|^2 =  2.959E-10

     Pert. #  1: Fermi energy shift (Ry) =     3.2768E-09     0.0000E+00

      iter #   5 total cpu time :  3074.5 secs   av.it.:  16.6
      thresh= 1.720E-06 alpha_mix =  0.700 |ddv_scf|^2 =  9.325E-12

     Pert. #  1: Fermi energy shift (Ry) =     1.3396E-09     0.0000E+00

      iter #   6 total cpu time :  3271.0 secs   av.it.:  16.5
      thresh= 3.054E-07 alpha_mix =  0.700 |ddv_scf|^2 =  7.617E-13

     Pert. #  1: Fermi energy shift (Ry) =    -1.5737E-10     0.0000E+00

      iter #   7 total cpu time :  3475.4 secs   av.it.:  16.8
      thresh= 8.727E-08 alpha_mix =  0.700 |ddv_scf|^2 =  9.437E-14

     Pert. #  1: Fermi energy shift (Ry) =    -5.4335E-12     0.0000E+00

      iter #   8 total cpu time :  3668.6 secs   av.it.:  16.9
      thresh= 3.072E-08 alpha_mix =  0.700 |ddv_scf|^2 =  1.173E-14

     Pert. #  1: Fermi energy shift (Ry) =     7.7734E-11     0.0000E+00

      iter #   9 total cpu time :  3866.9 secs   av.it.:  16.5
      thresh= 1.083E-08 alpha_mix =  0.700 |ddv_scf|^2 =  3.528E-15

     End of self-consistent calculation

     Convergence has been achieved 


     Representation #   3 mode #   3

     Self-consistent Calculation

     Pert. #  1: Fermi energy shift (Ry) =     4.3915E-07     0.0000E+00

      iter #   1 total cpu time :  3969.4 secs   av.it.:   5.6
      thresh= 1.000E-02 alpha_mix =  0.700 |ddv_scf|^2 =  4.680E-07

     Pert. #  1: Fermi energy shift (Ry) =     1.3727E-08     0.0000E+00

      iter #   2 total cpu time :  4170.7 secs   av.it.:  17.0
      thresh= 6.841E-05 alpha_mix =  0.700 |ddv_scf|^2 =  3.020E-07

     Pert. #  1: Fermi energy shift (Ry) =     1.4467E-08     0.0000E+00

      iter #   3 total cpu time :  4358.5 secs   av.it.:  16.3
      thresh= 5.495E-05 alpha_mix =  0.700 |ddv_scf|^2 =  2.803E-09

     Pert. #  1: Fermi energy shift (Ry) =    -1.3406E-09     0.0000E+00

      iter #   4 total cpu time :  4568.5 secs   av.it.:  17.1
      thresh= 5.294E-06 alpha_mix =  0.700 |ddv_scf|^2 =  2.959E-10

     Pert. #  1: Fermi energy shift (Ry) =    -3.8259E-09     0.0000E+00

      iter #   5 total cpu time :  4771.4 secs   av.it.:  16.6
      thresh= 1.720E-06 alpha_mix =  0.700 |ddv_scf|^2 =  9.325E-12

     Pert. #  1: Fermi energy shift (Ry) =     1.6335E-10     0.0000E+00

      iter #   6 total cpu time :  4963.8 secs   av.it.:  16.5
      thresh= 3.054E-07 alpha_mix =  0.700 |ddv_scf|^2 =  7.618E-13

     Pert. #  1: Fermi energy shift (Ry) =    -8.7326E-11     0.0000E+00

      iter #   7 total cpu time :  5157.8 secs   av.it.:  16.8
      thresh= 8.728E-08 alpha_mix =  0.700 |ddv_scf|^2 =  9.439E-14

     Pert. #  1: Fermi energy shift (Ry) =     1.9608E-10     0.0000E+00

      iter #   8 total cpu time :  5354.4 secs   av.it.:  16.9
      thresh= 3.072E-08 alpha_mix =  0.700 |ddv_scf|^2 =  1.173E-14

     Pert. #  1: Fermi energy shift (Ry) =     2.4672E-10     0.0000E+00

      iter #   9 total cpu time :  5560.9 secs   av.it.:  16.5
      thresh= 1.083E-08 alpha_mix =  0.700 |ddv_scf|^2 =  3.530E-15

     End of self-consistent calculation

     Convergence has been achieved 


     Representation #   4 mode #   4

     Self-consistent Calculation

     Pert. #  1: Fermi energy shift (Ry) =     7.1398E-07     0.0000E+00

      iter #   1 total cpu time :  5667.2 secs   av.it.:   5.6
      thresh= 1.000E-02 alpha_mix =  0.700 |ddv_scf|^2 =  4.680E-07

     Pert. #  1: Fermi energy shift (Ry) =     8.2031E-08     0.0000E+00

      iter #   2 total cpu time :  5873.5 secs   av.it.:  17.0
      thresh= 6.841E-05 alpha_mix =  0.700 |ddv_scf|^2 =  3.020E-07

     Pert. #  1: Fermi energy shift (Ry) =    -1.1903E-08     0.0000E+00

      iter #   3 total cpu time :  6064.0 secs   av.it.:  16.3
      thresh= 5.495E-05 alpha_mix =  0.700 |ddv_scf|^2 =  2.803E-09

     Pert. #  1: Fermi energy shift (Ry) =    -2.0233E-08     0.0000E+00

      iter #   4 total cpu time :  6261.6 secs   av.it.:  17.1
      thresh= 5.294E-06 alpha_mix =  0.700 |ddv_scf|^2 =  2.960E-10

     Pert. #  1: Fermi energy shift (Ry) =    -6.4044E-09     0.0000E+00

      iter #   5 total cpu time :  6466.4 secs   av.it.:  16.6
      thresh= 1.720E-06 alpha_mix =  0.700 |ddv_scf|^2 =  9.325E-12

     Pert. #  1: Fermi energy shift (Ry) =    -1.4359E-09     0.0000E+00

      iter #   6 total cpu time :  6659.8 secs   av.it.:  16.5
      thresh= 3.054E-07 alpha_mix =  0.700 |ddv_scf|^2 =  7.618E-13

     Pert. #  1: Fermi energy shift (Ry) =    -3.1430E-10     0.0000E+00

      iter #   7 total cpu time :  6853.5 secs   av.it.:  16.8
      thresh= 8.728E-08 alpha_mix =  0.700 |ddv_scf|^2 =  9.438E-14

     Pert. #  1: Fermi energy shift (Ry) =    -4.4736E-11     0.0000E+00

      iter #   8 total cpu time :  7051.3 secs   av.it.:  16.9
      thresh= 3.072E-08 alpha_mix =  0.700 |ddv_scf|^2 =  1.172E-14

     Pert. #  1: Fermi energy shift (Ry) =    -9.3901E-11     0.0000E+00

      iter #   9 total cpu time :  7243.6 secs   av.it.:  16.5
      thresh= 1.083E-08 alpha_mix =  0.700 |ddv_scf|^2 =  3.529E-15

     End of self-consistent calculation

     Convergence has been achieved 


     Representation #   5 mode #   5

     Self-consistent Calculation

     Pert. #  1: Fermi energy shift (Ry) =     5.3409E-07     0.0000E+00

      iter #   1 total cpu time :  7341.9 secs   av.it.:   5.6
      thresh= 1.000E-02 alpha_mix =  0.700 |ddv_scf|^2 =  4.680E-07

     Pert. #  1: Fermi energy shift (Ry) =     2.6040E-07     0.0000E+00

      iter #   2 total cpu time :  7540.0 secs   av.it.:  17.0
      thresh= 6.841E-05 alpha_mix =  0.700 |ddv_scf|^2 =  3.020E-07

     Pert. #  1: Fermi energy shift (Ry) =     1.7216E-07     0.0000E+00

      iter #   3 total cpu time :  7739.2 secs   av.it.:  16.3
      thresh= 5.495E-05 alpha_mix =  0.700 |ddv_scf|^2 =  2.803E-09

     Pert. #  1: Fermi energy shift (Ry) =     3.8168E-08     0.0000E+00

      iter #   4 total cpu time :  7941.2 secs   av.it.:  17.1
      thresh= 5.294E-06 alpha_mix =  0.700 |ddv_scf|^2 =  2.960E-10

     Pert. #  1: Fermi energy shift (Ry) =     4.3621E-09     0.0000E+00

      iter #   5 total cpu time :  8136.2 secs   av.it.:  16.6
      thresh= 1.720E-06 alpha_mix =  0.700 |ddv_scf|^2 =  9.324E-12

     Pert. #  1: Fermi energy shift (Ry) =     1.9657E-09     0.0000E+00

      iter #   6 total cpu time :  8329.6 secs   av.it.:  16.5
      thresh= 3.054E-07 alpha_mix =  0.700 |ddv_scf|^2 =  7.617E-13

     Pert. #  1: Fermi energy shift (Ry) =    -1.3085E-10     0.0000E+00

      iter #   7 total cpu time :  8526.8 secs   av.it.:  16.8
      thresh= 8.727E-08 alpha_mix =  0.700 |ddv_scf|^2 =  9.436E-14

     Pert. #  1: Fermi energy shift (Ry) =    -9.2603E-11     0.0000E+00

      iter #   8 total cpu time :  8723.3 secs   av.it.:  16.9
      thresh= 3.072E-08 alpha_mix =  0.700 |ddv_scf|^2 =  1.172E-14

     Pert. #  1: Fermi energy shift (Ry) =     4.5568E-11     0.0000E+00

      iter #   9 total cpu time :  8925.3 secs   av.it.:  16.5
      thresh= 1.083E-08 alpha_mix =  0.700 |ddv_scf|^2 =  3.529E-15

     End of self-consistent calculation

     Convergence has been achieved 


     Representation #   6 mode #   6

     Self-consistent Calculation

     Pert. #  1: Fermi energy shift (Ry) =    -2.4030E-07     0.0000E+00

      iter #   1 total cpu time :  9024.5 secs   av.it.:   5.6
      thresh= 1.000E-02 alpha_mix =  0.700 |ddv_scf|^2 =  4.680E-07

     Pert. #  1: Fermi energy shift (Ry) =     1.9391E-07     0.0000E+00

      iter #   2 total cpu time :  9223.4 secs   av.it.:  17.0
      thresh= 6.841E-05 alpha_mix =  0.700 |ddv_scf|^2 =  3.020E-07

     Pert. #  1: Fermi energy shift (Ry) =     6.1136E-08     0.0000E+00

      iter #   3 total cpu time :  9421.1 secs   av.it.:  16.3
      thresh= 5.495E-05 alpha_mix =  0.700 |ddv_scf|^2 =  2.803E-09

     Pert. #  1: Fermi energy shift (Ry) =    -3.8709E-09     0.0000E+00

      iter #   4 total cpu time :  9622.1 secs   av.it.:  17.1
      thresh= 5.294E-06 alpha_mix =  0.700 |ddv_scf|^2 =  2.960E-10

     Pert. #  1: Fermi energy shift (Ry) =     5.0405E-11     0.0000E+00

      iter #   5 total cpu time :  9816.4 secs   av.it.:  16.6
      thresh= 1.720E-06 alpha_mix =  0.700 |ddv_scf|^2 =  9.325E-12

     Pert. #  1: Fermi energy shift (Ry) =     1.9892E-10     0.0000E+00

      iter #   6 total cpu time : 10008.5 secs   av.it.:  16.5
      thresh= 3.054E-07 alpha_mix =  0.700 |ddv_scf|^2 =  7.618E-13

     Pert. #  1: Fermi energy shift (Ry) =    -3.3063E-10     0.0000E+00

      iter #   7 total cpu time : 10209.9 secs   av.it.:  16.8
      thresh= 8.728E-08 alpha_mix =  0.700 |ddv_scf|^2 =  9.438E-14

     Pert. #  1: Fermi energy shift (Ry) =    -7.3107E-11     0.0000E+00

      iter #   8 total cpu time : 10408.4 secs   av.it.:  16.9
      thresh= 3.072E-08 alpha_mix =  0.700 |ddv_scf|^2 =  1.173E-14

     Pert. #  1: Fermi energy shift (Ry) =    -4.3712E-11     0.0000E+00

      iter #   9 total cpu time : 10609.6 secs   av.it.:  16.5
      thresh= 1.083E-08 alpha_mix =  0.700 |ddv_scf|^2 =  3.529E-15

     End of self-consistent calculation

     Convergence has been achieved 


     Representation #   7 mode #   7

     Self-consistent Calculation

     Pert. #  1: Fermi energy shift (Ry) =    -5.7052E-07     0.0000E+00

      iter #   1 total cpu time : 10708.3 secs   av.it.:   5.6
      thresh= 1.000E-02 alpha_mix =  0.700 |ddv_scf|^2 =  4.680E-07

     Pert. #  1: Fermi energy shift (Ry) =     1.5666E-08     0.0000E+00

      iter #   2 total cpu time : 10919.5 secs   av.it.:  17.0
      thresh= 6.841E-05 alpha_mix =  0.700 |ddv_scf|^2 =  3.020E-07

     Pert. #  1: Fermi energy shift (Ry) =     1.1365E-08     0.0000E+00

      iter #   3 total cpu time : 11122.9 secs   av.it.:  16.3
      thresh= 5.495E-05 alpha_mix =  0.700 |ddv_scf|^2 =  2.803E-09

     Pert. #  1: Fermi energy shift (Ry) =     2.4049E-09     0.0000E+00

      iter #   4 total cpu time : 11323.7 secs   av.it.:  17.1
      thresh= 5.294E-06 alpha_mix =  0.700 |ddv_scf|^2 =  2.960E-10

     Pert. #  1: Fermi energy shift (Ry) =     3.5965E-10     0.0000E+00

      iter #   5 total cpu time : 11534.2 secs   av.it.:  16.6
      thresh= 1.720E-06 alpha_mix =  0.700 |ddv_scf|^2 =  9.324E-12

     Pert. #  1: Fermi energy shift (Ry) =     4.3347E-10     0.0000E+00

      iter #   6 total cpu time : 11734.5 secs   av.it.:  16.5
      thresh= 3.054E-07 alpha_mix =  0.700 |ddv_scf|^2 =  7.617E-13

     Pert. #  1: Fermi energy shift (Ry) =    -9.6513E-11     0.0000E+00

      iter #   7 total cpu time : 11929.7 secs   av.it.:  16.8
      thresh= 8.727E-08 alpha_mix =  0.700 |ddv_scf|^2 =  9.437E-14

     Pert. #  1: Fermi energy shift (Ry) =     2.4168E-11     0.0000E+00

      iter #   8 total cpu time : 12125.9 secs   av.it.:  16.9
      thresh= 3.072E-08 alpha_mix =  0.700 |ddv_scf|^2 =  1.172E-14

     Pert. #  1: Fermi energy shift (Ry) =     6.3702E-11     0.0000E+00

      iter #   9 total cpu time : 12318.6 secs   av.it.:  16.5
      thresh= 1.083E-08 alpha_mix =  0.700 |ddv_scf|^2 =  3.529E-15

     End of self-consistent calculation

     Convergence has been achieved 


     Representation #   8 mode #   8

     Self-consistent Calculation

     Pert. #  1: Fermi energy shift (Ry) =     1.0449E-07     0.0000E+00

      iter #   1 total cpu time : 12421.5 secs   av.it.:   5.6
      thresh= 1.000E-02 alpha_mix =  0.700 |ddv_scf|^2 =  4.680E-07

     Pert. #  1: Fermi energy shift (Ry) =    -1.3658E-08     0.0000E+00

      iter #   2 total cpu time : 12618.3 secs   av.it.:  17.0
      thresh= 6.841E-05 alpha_mix =  0.700 |ddv_scf|^2 =  3.020E-07

     Pert. #  1: Fermi energy shift (Ry) =    -1.2452E-07     0.0000E+00

      iter #   3 total cpu time : 12820.5 secs   av.it.:  16.3
      thresh= 5.495E-05 alpha_mix =  0.700 |ddv_scf|^2 =  2.803E-09

     Pert. #  1: Fermi energy shift (Ry) =    -6.3530E-08     0.0000E+00

      iter #   4 total cpu time : 13020.8 secs   av.it.:  17.1
      thresh= 5.294E-06 alpha_mix =  0.700 |ddv_scf|^2 =  2.960E-10

     Pert. #  1: Fermi energy shift (Ry) =    -1.0105E-08     0.0000E+00

      iter #   5 total cpu time : 13215.9 secs   av.it.:  16.6
      thresh= 1.720E-06 alpha_mix =  0.700 |ddv_scf|^2 =  9.324E-12

     Pert. #  1: Fermi energy shift (Ry) =    -2.3443E-09     0.0000E+00

      iter #   6 total cpu time : 13417.5 secs   av.it.:  16.5
      thresh= 3.054E-07 alpha_mix =  0.700 |ddv_scf|^2 =  7.617E-13

     Pert. #  1: Fermi energy shift (Ry) =    -3.4728E-10     0.0000E+00

      iter #   7 total cpu time : 13621.3 secs   av.it.:  16.8
      thresh= 8.728E-08 alpha_mix =  0.700 |ddv_scf|^2 =  9.438E-14

     Pert. #  1: Fermi energy shift (Ry) =     2.0993E-10     0.0000E+00

      iter #   8 total cpu time : 13825.0 secs   av.it.:  16.9
      thresh= 3.072E-08 alpha_mix =  0.700 |ddv_scf|^2 =  1.173E-14

     Pert. #  1: Fermi energy shift (Ry) =     1.1562E-10     0.0000E+00

      iter #   9 total cpu time : 14019.9 secs   av.it.:  16.5
      thresh= 1.083E-08 alpha_mix =  0.700 |ddv_scf|^2 =  3.529E-15

     End of self-consistent calculation

     Convergence has been achieved 


     Representation #   9 mode #   9

     Self-consistent Calculation

     Pert. #  1: Fermi energy shift (Ry) =    -1.7488E-07     0.0000E+00

      iter #   1 total cpu time : 14119.5 secs   av.it.:   5.6
      thresh= 1.000E-02 alpha_mix =  0.700 |ddv_scf|^2 =  4.680E-07

     Pert. #  1: Fermi energy shift (Ry) =     2.1840E-07     0.0000E+00

      iter #   2 total cpu time : 14323.2 secs   av.it.:  17.0
      thresh= 6.841E-05 alpha_mix =  0.700 |ddv_scf|^2 =  3.020E-07

     Pert. #  1: Fermi energy shift (Ry) =     8.2173E-08     0.0000E+00

      iter #   3 total cpu time : 14518.4 secs   av.it.:  16.3
      thresh= 5.495E-05 alpha_mix =  0.700 |ddv_scf|^2 =  2.803E-09

     Pert. #  1: Fermi energy shift (Ry) =     8.7198E-09     0.0000E+00

      iter #   4 total cpu time : 14724.5 secs   av.it.:  17.1
      thresh= 5.294E-06 alpha_mix =  0.700 |ddv_scf|^2 =  2.960E-10

     Pert. #  1: Fermi energy shift (Ry) =     6.9831E-09     0.0000E+00

      iter #   5 total cpu time : 14930.3 secs   av.it.:  16.6
      thresh= 1.720E-06 alpha_mix =  0.700 |ddv_scf|^2 =  9.324E-12

     Pert. #  1: Fermi energy shift (Ry) =     2.4584E-10     0.0000E+00

      iter #   6 total cpu time : 15134.4 secs   av.it.:  16.5
      thresh= 3.054E-07 alpha_mix =  0.700 |ddv_scf|^2 =  7.616E-13

     Pert. #  1: Fermi energy shift (Ry) =    -1.3923E-10     0.0000E+00

      iter #   7 total cpu time : 15348.9 secs   av.it.:  16.8
      thresh= 8.727E-08 alpha_mix =  0.700 |ddv_scf|^2 =  9.436E-14

     Pert. #  1: Fermi energy shift (Ry) =    -1.6050E-10     0.0000E+00

      iter #   8 total cpu time : 15549.1 secs   av.it.:  16.9
      thresh= 3.072E-08 alpha_mix =  0.700 |ddv_scf|^2 =  1.172E-14

     Pert. #  1: Fermi energy shift (Ry) =    -2.0332E-10     0.0000E+00

      iter #   9 total cpu time : 15745.5 secs   av.it.:  16.5
      thresh= 1.083E-08 alpha_mix =  0.700 |ddv_scf|^2 =  3.528E-15

     End of self-consistent calculation

     Convergence has been achieved 


     Representation #  10 mode #  10

     Self-consistent Calculation

     Pert. #  1: Fermi energy shift (Ry) =     3.4583E-07     0.0000E+00

      iter #   1 total cpu time : 15846.3 secs   av.it.:   5.6
      thresh= 1.000E-02 alpha_mix =  0.700 |ddv_scf|^2 =  4.680E-07

     Pert. #  1: Fermi energy shift (Ry) =    -5.7547E-08     0.0000E+00

      iter #   2 total cpu time : 16046.9 secs   av.it.:  17.0
      thresh= 6.841E-05 alpha_mix =  0.700 |ddv_scf|^2 =  3.020E-07

     Pert. #  1: Fermi energy shift (Ry) =    -7.5886E-09     0.0000E+00

      iter #   3 total cpu time : 16254.4 secs   av.it.:  16.3
      thresh= 5.495E-05 alpha_mix =  0.700 |ddv_scf|^2 =  2.803E-09

     Pert. #  1: Fermi energy shift (Ry) =     7.0060E-09     0.0000E+00

      iter #   4 total cpu time : 16465.0 secs   av.it.:  17.1
      thresh= 5.294E-06 alpha_mix =  0.700 |ddv_scf|^2 =  2.960E-10

     Pert. #  1: Fermi energy shift (Ry) =     1.5537E-09     0.0000E+00

      iter #   5 total cpu time : 16657.4 secs   av.it.:  16.6
      thresh= 1.720E-06 alpha_mix =  0.700 |ddv_scf|^2 =  9.325E-12

     Pert. #  1: Fermi energy shift (Ry) =    -5.0653E-10     0.0000E+00

      iter #   6 total cpu time : 16860.6 secs   av.it.:  16.5
      thresh= 3.054E-07 alpha_mix =  0.700 |ddv_scf|^2 =  7.618E-13

     Pert. #  1: Fermi energy shift (Ry) =     1.5156E-10     0.0000E+00

      iter #   7 total cpu time : 17060.6 secs   av.it.:  16.8
      thresh= 8.728E-08 alpha_mix =  0.700 |ddv_scf|^2 =  9.437E-14

     Pert. #  1: Fermi energy shift (Ry) =    -1.9782E-10     0.0000E+00

      iter #   8 total cpu time : 17277.2 secs   av.it.:  16.9
      thresh= 3.072E-08 alpha_mix =  0.700 |ddv_scf|^2 =  1.172E-14

     Pert. #  1: Fermi energy shift (Ry) =    -2.4766E-10     0.0000E+00

      iter #   9 total cpu time : 17469.0 secs   av.it.:  16.5
      thresh= 1.083E-08 alpha_mix =  0.700 |ddv_scf|^2 =  3.529E-15

     End of self-consistent calculation

     Convergence has been achieved 


     Representation #  11 mode #  11

     Self-consistent Calculation

     Pert. #  1: Fermi energy shift (Ry) =     2.2575E-07     0.0000E+00

      iter #   1 total cpu time : 17569.3 secs   av.it.:   5.6
      thresh= 1.000E-02 alpha_mix =  0.700 |ddv_scf|^2 =  4.680E-07

     Pert. #  1: Fermi energy shift (Ry) =    -7.1677E-08     0.0000E+00

      iter #   2 total cpu time : 17767.3 secs   av.it.:  17.0
      thresh= 6.841E-05 alpha_mix =  0.700 |ddv_scf|^2 =  3.020E-07

     Pert. #  1: Fermi energy shift (Ry) =    -1.3057E-07     0.0000E+00

      iter #   3 total cpu time : 17961.8 secs   av.it.:  16.3
      thresh= 5.495E-05 alpha_mix =  0.700 |ddv_scf|^2 =  2.803E-09

     Pert. #  1: Fermi energy shift (Ry) =    -5.1332E-08     0.0000E+00

      iter #   4 total cpu time : 18168.9 secs   av.it.:  17.1
      thresh= 5.294E-06 alpha_mix =  0.700 |ddv_scf|^2 =  2.960E-10

     Pert. #  1: Fermi energy shift (Ry) =    -7.6165E-09     0.0000E+00

      iter #   5 total cpu time : 18366.0 secs   av.it.:  16.6
      thresh= 1.720E-06 alpha_mix =  0.700 |ddv_scf|^2 =  9.325E-12

     Pert. #  1: Fermi energy shift (Ry) =    -1.8354E-09     0.0000E+00

      iter #   6 total cpu time : 18568.5 secs   av.it.:  16.5
      thresh= 3.054E-07 alpha_mix =  0.700 |ddv_scf|^2 =  7.618E-13

     Pert. #  1: Fermi energy shift (Ry) =    -4.2745E-10     0.0000E+00

      iter #   7 total cpu time : 18771.2 secs   av.it.:  16.8
      thresh= 8.728E-08 alpha_mix =  0.700 |ddv_scf|^2 =  9.438E-14

     Pert. #  1: Fermi energy shift (Ry) =     1.1560E-11     0.0000E+00

      iter #   8 total cpu time : 18979.2 secs   av.it.:  16.9
      thresh= 3.072E-08 alpha_mix =  0.700 |ddv_scf|^2 =  1.173E-14

     Pert. #  1: Fermi energy shift (Ry) =    -6.2473E-11     0.0000E+00

      iter #   9 total cpu time : 19172.9 secs   av.it.:  16.5
      thresh= 1.083E-08 alpha_mix =  0.700 |ddv_scf|^2 =  3.529E-15

     End of self-consistent calculation

     Convergence has been achieved 


     Representation #  12 mode #  12

     Self-consistent Calculation

     Pert. #  1: Fermi energy shift (Ry) =     4.7288E-07     0.0000E+00

      iter #   1 total cpu time : 19288.4 secs   av.it.:   5.6
      thresh= 1.000E-02 alpha_mix =  0.700 |ddv_scf|^2 =  4.680E-07

     Pert. #  1: Fermi energy shift (Ry) =     2.8399E-08     0.0000E+00

      iter #   2 total cpu time : 19506.1 secs   av.it.:  17.0
      thresh= 6.841E-05 alpha_mix =  0.700 |ddv_scf|^2 =  3.020E-07

     Pert. #  1: Fermi energy shift (Ry) =     6.1192E-09     0.0000E+00

      iter #   3 total cpu time : 19700.3 secs   av.it.:  16.3
      thresh= 5.495E-05 alpha_mix =  0.700 |ddv_scf|^2 =  2.803E-09

     Pert. #  1: Fermi energy shift (Ry) =     3.5281E-09     0.0000E+00

      iter #   4 total cpu time : 19904.5 secs   av.it.:  17.1
      thresh= 5.294E-06 alpha_mix =  0.700 |ddv_scf|^2 =  2.959E-10

     Pert. #  1: Fermi energy shift (Ry) =     2.5550E-09     0.0000E+00

      iter #   5 total cpu time : 20105.4 secs   av.it.:  16.6
      thresh= 1.720E-06 alpha_mix =  0.700 |ddv_scf|^2 =  9.325E-12

     Pert. #  1: Fermi energy shift (Ry) =     2.6290E-11     0.0000E+00

      iter #   6 total cpu time : 20312.0 secs   av.it.:  16.5
      thresh= 3.054E-07 alpha_mix =  0.700 |ddv_scf|^2 =  7.618E-13

     Pert. #  1: Fermi energy shift (Ry) =     1.8414E-10     0.0000E+00

      iter #   7 total cpu time : 20510.3 secs   av.it.:  16.8
      thresh= 8.728E-08 alpha_mix =  0.700 |ddv_scf|^2 =  9.439E-14

     Pert. #  1: Fermi energy shift (Ry) =     1.8861E-10     0.0000E+00

      iter #   8 total cpu time : 20709.5 secs   av.it.:  16.9
      thresh= 3.072E-08 alpha_mix =  0.700 |ddv_scf|^2 =  1.173E-14

     Pert. #  1: Fermi energy shift (Ry) =     1.4741E-10     0.0000E+00

      iter #   9 total cpu time : 20902.3 secs   av.it.:  16.5
      thresh= 1.083E-08 alpha_mix =  0.700 |ddv_scf|^2 =  3.530E-15

     End of self-consistent calculation

     Convergence has been achieved 


     Representation #  13 mode #  13

     Self-consistent Calculation

     Pert. #  1: Fermi energy shift (Ry) =    -1.4878E-06     0.0000E+00

      iter #   1 total cpu time : 21045.1 secs   av.it.:   9.5
      thresh= 1.000E-02 alpha_mix =  0.700 |ddv_scf|^2 =  5.338E-06

     Pert. #  1: Fermi energy shift (Ry) =     3.1495E-07     0.0000E+00

      iter #   2 total cpu time : 21253.2 secs   av.it.:  18.1
      thresh= 2.310E-04 alpha_mix =  0.700 |ddv_scf|^2 =  2.656E-06

     Pert. #  1: Fermi energy shift (Ry) =     5.4950E-08     0.0000E+00

      iter #   3 total cpu time : 21450.6 secs   av.it.:  17.0
      thresh= 1.630E-04 alpha_mix =  0.700 |ddv_scf|^2 =  6.249E-08

     Pert. #  1: Fermi energy shift (Ry) =    -3.6416E-08     0.0000E+00

      iter #   4 total cpu time : 21654.3 secs   av.it.:  17.6
      thresh= 2.500E-05 alpha_mix =  0.700 |ddv_scf|^2 =  3.050E-09

     Pert. #  1: Fermi energy shift (Ry) =    -3.3393E-09     0.0000E+00

      iter #   5 total cpu time : 21855.4 secs   av.it.:  17.5
      thresh= 5.522E-06 alpha_mix =  0.700 |ddv_scf|^2 =  8.526E-11

     Pert. #  1: Fermi energy shift (Ry) =     2.8554E-10     0.0000E+00

      iter #   6 total cpu time : 22062.2 secs   av.it.:  17.8
      thresh= 9.234E-07 alpha_mix =  0.700 |ddv_scf|^2 =  2.111E-11

     Pert. #  1: Fermi energy shift (Ry) =     2.4169E-10     0.0000E+00

      iter #   7 total cpu time : 22258.4 secs   av.it.:  16.7
      thresh= 4.594E-07 alpha_mix =  0.700 |ddv_scf|^2 =  1.662E-12

     Pert. #  1: Fermi energy shift (Ry) =     5.6066E-10     0.0000E+00

      iter #   8 total cpu time : 22448.5 secs   av.it.:  16.3
      thresh= 1.289E-07 alpha_mix =  0.700 |ddv_scf|^2 =  2.343E-14

     Pert. #  1: Fermi energy shift (Ry) =     5.8439E-10     0.0000E+00

      iter #   9 total cpu time : 22656.2 secs   av.it.:  18.3
      thresh= 1.531E-08 alpha_mix =  0.700 |ddv_scf|^2 =  9.781E-15

     End of self-consistent calculation

     Convergence has been achieved 


     Representation #  14 mode #  14

     Self-consistent Calculation

     Pert. #  1: Fermi energy shift (Ry) =     1.4144E-06     0.0000E+00

      iter #   1 total cpu time : 22797.4 secs   av.it.:   9.5
      thresh= 1.000E-02 alpha_mix =  0.700 |ddv_scf|^2 =  5.338E-06

     Pert. #  1: Fermi energy shift (Ry) =     7.8625E-07     0.0000E+00

      iter #   2 total cpu time : 23007.1 secs   av.it.:  18.1
      thresh= 2.310E-04 alpha_mix =  0.700 |ddv_scf|^2 =  2.656E-06

     Pert. #  1: Fermi energy shift (Ry) =    -6.1647E-08     0.0000E+00

      iter #   3 total cpu time : 23204.1 secs   av.it.:  17.0
      thresh= 1.630E-04 alpha_mix =  0.700 |ddv_scf|^2 =  6.249E-08

     Pert. #  1: Fermi energy shift (Ry) =    -1.7507E-07     0.0000E+00

      iter #   4 total cpu time : 23409.0 secs   av.it.:  17.6
      thresh= 2.500E-05 alpha_mix =  0.700 |ddv_scf|^2 =  3.050E-09

     Pert. #  1: Fermi energy shift (Ry) =    -1.3770E-08     0.0000E+00

      iter #   5 total cpu time : 23610.3 secs   av.it.:  17.5
      thresh= 5.522E-06 alpha_mix =  0.700 |ddv_scf|^2 =  8.526E-11

     Pert. #  1: Fermi energy shift (Ry) =    -5.3207E-09     0.0000E+00

      iter #   6 total cpu time : 23814.4 secs   av.it.:  17.8
      thresh= 9.234E-07 alpha_mix =  0.700 |ddv_scf|^2 =  2.111E-11

     Pert. #  1: Fermi energy shift (Ry) =    -1.1320E-09     0.0000E+00

      iter #   7 total cpu time : 24007.5 secs   av.it.:  16.7
      thresh= 4.594E-07 alpha_mix =  0.700 |ddv_scf|^2 =  1.662E-12

     Pert. #  1: Fermi energy shift (Ry) =     1.9453E-09     0.0000E+00

      iter #   8 total cpu time : 24198.3 secs   av.it.:  16.3
      thresh= 1.289E-07 alpha_mix =  0.700 |ddv_scf|^2 =  2.343E-14

     Pert. #  1: Fermi energy shift (Ry) =     1.3873E-09     0.0000E+00

      iter #   9 total cpu time : 24409.0 secs   av.it.:  18.3
      thresh= 1.531E-08 alpha_mix =  0.700 |ddv_scf|^2 =  9.781E-15

     End of self-consistent calculation

     Convergence has been achieved 


     Representation #  15 mode #  15

     Self-consistent Calculation

     Pert. #  1: Fermi energy shift (Ry) =    -5.9731E-07     0.0000E+00

      iter #   1 total cpu time : 24547.9 secs   av.it.:   9.5
      thresh= 1.000E-02 alpha_mix =  0.700 |ddv_scf|^2 =  5.338E-06

     Pert. #  1: Fermi energy shift (Ry) =     3.5399E-07     0.0000E+00

      iter #   2 total cpu time : 24754.6 secs   av.it.:  18.1
      thresh= 2.310E-04 alpha_mix =  0.700 |ddv_scf|^2 =  2.656E-06

     Pert. #  1: Fermi energy shift (Ry) =     6.2437E-08     0.0000E+00

      iter #   3 total cpu time : 24949.1 secs   av.it.:  17.0
      thresh= 1.630E-04 alpha_mix =  0.700 |ddv_scf|^2 =  6.249E-08

     Pert. #  1: Fermi energy shift (Ry) =    -1.6661E-08     0.0000E+00

      iter #   4 total cpu time : 25151.3 secs   av.it.:  17.6
      thresh= 2.500E-05 alpha_mix =  0.700 |ddv_scf|^2 =  3.050E-09

     Pert. #  1: Fermi energy shift (Ry) =     3.1614E-09     0.0000E+00

      iter #   5 total cpu time : 25352.7 secs   av.it.:  17.5
      thresh= 5.522E-06 alpha_mix =  0.700 |ddv_scf|^2 =  8.526E-11

     Pert. #  1: Fermi energy shift (Ry) =    -1.7759E-09     0.0000E+00

      iter #   6 total cpu time : 25556.0 secs   av.it.:  17.8
      thresh= 9.234E-07 alpha_mix =  0.700 |ddv_scf|^2 =  2.111E-11

     Pert. #  1: Fermi energy shift (Ry) =    -1.4041E-09     0.0000E+00

      iter #   7 total cpu time : 25747.9 secs   av.it.:  16.7
      thresh= 4.594E-07 alpha_mix =  0.700 |ddv_scf|^2 =  1.662E-12

     Pert. #  1: Fermi energy shift (Ry) =    -1.1048E-09     0.0000E+00

      iter #   8 total cpu time : 25936.4 secs   av.it.:  16.3
      thresh= 1.289E-07 alpha_mix =  0.700 |ddv_scf|^2 =  2.343E-14

     Pert. #  1: Fermi energy shift (Ry) =    -1.0155E-09     0.0000E+00

      iter #   9 total cpu time : 26144.6 secs   av.it.:  18.3
      thresh= 1.531E-08 alpha_mix =  0.700 |ddv_scf|^2 =  9.781E-15

     End of self-consistent calculation

     Convergence has been achieved 


     Representation #  16 mode #  16

     Self-consistent Calculation

     Pert. #  1: Fermi energy shift (Ry) =     2.0693E-06     0.0000E+00

      iter #   1 total cpu time : 26284.8 secs   av.it.:   9.5
      thresh= 1.000E-02 alpha_mix =  0.700 |ddv_scf|^2 =  5.338E-06

     Pert. #  1: Fermi energy shift (Ry) =     3.8892E-07     0.0000E+00

      iter #   2 total cpu time : 26490.7 secs   av.it.:  18.1
      thresh= 2.310E-04 alpha_mix =  0.700 |ddv_scf|^2 =  2.656E-06

     Pert. #  1: Fermi energy shift (Ry) =     3.1800E-07     0.0000E+00

      iter #   3 total cpu time : 26685.2 secs   av.it.:  17.0
      thresh= 1.630E-04 alpha_mix =  0.700 |ddv_scf|^2 =  6.249E-08

     Pert. #  1: Fermi energy shift (Ry) =     7.1327E-08     0.0000E+00

      iter #   4 total cpu time : 26887.4 secs   av.it.:  17.6
      thresh= 2.500E-05 alpha_mix =  0.700 |ddv_scf|^2 =  3.050E-09

     Pert. #  1: Fermi energy shift (Ry) =     5.8261E-09     0.0000E+00

      iter #   5 total cpu time : 27087.5 secs   av.it.:  17.5
      thresh= 5.522E-06 alpha_mix =  0.700 |ddv_scf|^2 =  8.526E-11

     Pert. #  1: Fermi energy shift (Ry) =     9.1063E-10     0.0000E+00

      iter #   6 total cpu time : 27291.8 secs   av.it.:  17.8
      thresh= 9.234E-07 alpha_mix =  0.700 |ddv_scf|^2 =  2.111E-11

     Pert. #  1: Fermi energy shift (Ry) =    -7.1466E-10     0.0000E+00

      iter #   7 total cpu time : 27484.4 secs   av.it.:  16.7
      thresh= 4.594E-07 alpha_mix =  0.700 |ddv_scf|^2 =  1.662E-12

     Pert. #  1: Fermi energy shift (Ry) =    -9.2710E-10     0.0000E+00

      iter #   8 total cpu time : 27672.8 secs   av.it.:  16.3
      thresh= 1.289E-07 alpha_mix =  0.700 |ddv_scf|^2 =  2.343E-14

     Pert. #  1: Fermi energy shift (Ry) =    -3.2485E-10     0.0000E+00

      iter #   9 total cpu time : 27880.6 secs   av.it.:  18.3
      thresh= 1.531E-08 alpha_mix =  0.700 |ddv_scf|^2 =  9.781E-15

     End of self-consistent calculation

     Convergence has been achieved 


     Representation #  17 mode #  17

     Self-consistent Calculation

     Pert. #  1: Fermi energy shift (Ry) =    -6.3680E-07     0.0000E+00

      iter #   1 total cpu time : 28021.0 secs   av.it.:   9.5
      thresh= 1.000E-02 alpha_mix =  0.700 |ddv_scf|^2 =  5.338E-06

     Pert. #  1: Fermi energy shift (Ry) =    -1.8768E-07     0.0000E+00

      iter #   2 total cpu time : 28227.0 secs   av.it.:  18.1
      thresh= 2.310E-04 alpha_mix =  0.700 |ddv_scf|^2 =  2.656E-06

     Pert. #  1: Fermi energy shift (Ry) =     9.4860E-08     0.0000E+00

      iter #   3 total cpu time : 28422.4 secs   av.it.:  17.0
      thresh= 1.630E-04 alpha_mix =  0.700 |ddv_scf|^2 =  6.249E-08

     Pert. #  1: Fermi energy shift (Ry) =     6.6174E-08     0.0000E+00

      iter #   4 total cpu time : 28624.0 secs   av.it.:  17.6
      thresh= 2.500E-05 alpha_mix =  0.700 |ddv_scf|^2 =  3.050E-09

     Pert. #  1: Fermi energy shift (Ry) =    -4.1855E-09     0.0000E+00

      iter #   5 total cpu time : 28824.1 secs   av.it.:  17.5
      thresh= 5.522E-06 alpha_mix =  0.700 |ddv_scf|^2 =  8.526E-11

     Pert. #  1: Fermi energy shift (Ry) =     2.1889E-09     0.0000E+00

      iter #   6 total cpu time : 29028.3 secs   av.it.:  17.8
      thresh= 9.234E-07 alpha_mix =  0.700 |ddv_scf|^2 =  2.111E-11

     Pert. #  1: Fermi energy shift (Ry) =    -1.5554E-09     0.0000E+00

      iter #   7 total cpu time : 29222.1 secs   av.it.:  16.7
      thresh= 4.594E-07 alpha_mix =  0.700 |ddv_scf|^2 =  1.662E-12

     Pert. #  1: Fermi energy shift (Ry) =    -2.5981E-09     0.0000E+00

      iter #   8 total cpu time : 29410.7 secs   av.it.:  16.3
      thresh= 1.289E-07 alpha_mix =  0.700 |ddv_scf|^2 =  2.343E-14

     Pert. #  1: Fermi energy shift (Ry) =    -1.4718E-09     0.0000E+00

      iter #   9 total cpu time : 29619.4 secs   av.it.:  18.3
      thresh= 1.531E-08 alpha_mix =  0.700 |ddv_scf|^2 =  9.781E-15

     End of self-consistent calculation

     Convergence has been achieved 


     Representation #  18 mode #  18

     Self-consistent Calculation

     Pert. #  1: Fermi energy shift (Ry) =     2.7931E-07     0.0000E+00

      iter #   1 total cpu time : 29759.5 secs   av.it.:   9.5
      thresh= 1.000E-02 alpha_mix =  0.700 |ddv_scf|^2 =  5.338E-06

     Pert. #  1: Fermi energy shift (Ry) =    -1.2558E-07     0.0000E+00

      iter #   2 total cpu time : 29965.6 secs   av.it.:  18.1
      thresh= 2.310E-04 alpha_mix =  0.700 |ddv_scf|^2 =  2.656E-06

     Pert. #  1: Fermi energy shift (Ry) =     2.5921E-08     0.0000E+00

      iter #   3 total cpu time : 30161.0 secs   av.it.:  17.0
      thresh= 1.630E-04 alpha_mix =  0.700 |ddv_scf|^2 =  6.249E-08

     Pert. #  1: Fermi energy shift (Ry) =     2.6944E-08     0.0000E+00

      iter #   4 total cpu time : 30363.0 secs   av.it.:  17.6
      thresh= 2.500E-05 alpha_mix =  0.700 |ddv_scf|^2 =  3.050E-09

     Pert. #  1: Fermi energy shift (Ry) =     6.3946E-09     0.0000E+00

      iter #   5 total cpu time : 30563.2 secs   av.it.:  17.5
      thresh= 5.522E-06 alpha_mix =  0.700 |ddv_scf|^2 =  8.526E-11

     Pert. #  1: Fermi energy shift (Ry) =     3.6587E-09     0.0000E+00

      iter #   6 total cpu time : 30767.0 secs   av.it.:  17.8
      thresh= 9.234E-07 alpha_mix =  0.700 |ddv_scf|^2 =  2.111E-11

     Pert. #  1: Fermi energy shift (Ry) =     1.9960E-09     0.0000E+00

      iter #   7 total cpu time : 30959.6 secs   av.it.:  16.7
      thresh= 4.594E-07 alpha_mix =  0.700 |ddv_scf|^2 =  1.662E-12

     Pert. #  1: Fermi energy shift (Ry) =     9.0616E-10     0.0000E+00

      iter #   8 total cpu time : 31147.5 secs   av.it.:  16.3
      thresh= 1.289E-07 alpha_mix =  0.700 |ddv_scf|^2 =  2.343E-14

     Pert. #  1: Fermi energy shift (Ry) =     9.5095E-10     0.0000E+00

      iter #   9 total cpu time : 31356.6 secs   av.it.:  18.3
      thresh= 1.531E-08 alpha_mix =  0.700 |ddv_scf|^2 =  9.781E-15

     End of self-consistent calculation

     Convergence has been achieved 


     Representation #  19 mode #  19

     Self-consistent Calculation

     Pert. #  1: Fermi energy shift (Ry) =    -3.0980E-03     0.0000E+00

      iter #   1 total cpu time : 31438.1 secs   av.it.:   4.0
      thresh= 1.000E-02 alpha_mix =  0.700 |ddv_scf|^2 =  3.636E-08

     Pert. #  1: Fermi energy shift (Ry) =    -1.8946E-04     0.0000E+00

      iter #   2 total cpu time : 31641.0 secs   av.it.:  17.6
      thresh= 1.907E-05 alpha_mix =  0.700 |ddv_scf|^2 =  2.115E-08

     Pert. #  1: Fermi energy shift (Ry) =    -1.8534E-03     0.0000E+00

      iter #   3 total cpu time : 31836.1 secs   av.it.:  17.0
      thresh= 1.454E-05 alpha_mix =  0.700 |ddv_scf|^2 =  1.897E-10

     Pert. #  1: Fermi energy shift (Ry) =    -2.0858E-03     0.0000E+00

      iter #   4 total cpu time : 32039.5 secs   av.it.:  17.8
      thresh= 1.377E-06 alpha_mix =  0.700 |ddv_scf|^2 =  1.706E-11

     Pert. #  1: Fermi energy shift (Ry) =    -1.9923E-03     0.0000E+00

      iter #   5 total cpu time : 32242.2 secs   av.it.:  17.5
      thresh= 4.130E-07 alpha_mix =  0.700 |ddv_scf|^2 =  4.651E-13

     Pert. #  1: Fermi energy shift (Ry) =    -2.0019E-03     0.0000E+00

      iter #   6 total cpu time : 32446.6 secs   av.it.:  17.9
      thresh= 6.820E-08 alpha_mix =  0.700 |ddv_scf|^2 =  7.129E-14

     Pert. #  1: Fermi energy shift (Ry) =    -2.0002E-03     0.0000E+00

      iter #   7 total cpu time : 32649.7 secs   av.it.:  17.6
      thresh= 2.670E-08 alpha_mix =  0.700 |ddv_scf|^2 =  7.483E-15

     End of self-consistent calculation

     Convergence has been achieved 


     Representation #  20 mode #  20

     Self-consistent Calculation

     Pert. #  1: Fermi energy shift (Ry) =    -3.0971E-03     0.0000E+00

      iter #   1 total cpu time : 32732.1 secs   av.it.:   4.0
      thresh= 1.000E-02 alpha_mix =  0.700 |ddv_scf|^2 =  3.637E-08

     Pert. #  1: Fermi energy shift (Ry) =    -1.8862E-04     0.0000E+00

      iter #   2 total cpu time : 32933.8 secs   av.it.:  17.6
      thresh= 1.907E-05 alpha_mix =  0.700 |ddv_scf|^2 =  2.116E-08

     Pert. #  1: Fermi energy shift (Ry) =    -1.8533E-03     0.0000E+00

      iter #   3 total cpu time : 33129.5 secs   av.it.:  17.0
      thresh= 1.455E-05 alpha_mix =  0.700 |ddv_scf|^2 =  1.896E-10

     Pert. #  1: Fermi energy shift (Ry) =    -2.0859E-03     0.0000E+00

      iter #   4 total cpu time : 33332.7 secs   av.it.:  17.8
      thresh= 1.377E-06 alpha_mix =  0.700 |ddv_scf|^2 =  1.706E-11

     Pert. #  1: Fermi energy shift (Ry) =    -1.9924E-03     0.0000E+00

      iter #   5 total cpu time : 33534.1 secs   av.it.:  17.5
      thresh= 4.130E-07 alpha_mix =  0.700 |ddv_scf|^2 =  4.652E-13

     Pert. #  1: Fermi energy shift (Ry) =    -2.0019E-03     0.0000E+00

      iter #   6 total cpu time : 33739.3 secs   av.it.:  17.9
      thresh= 6.820E-08 alpha_mix =  0.700 |ddv_scf|^2 =  7.131E-14

     Pert. #  1: Fermi energy shift (Ry) =    -2.0002E-03     0.0000E+00

      iter #   7 total cpu time : 33940.8 secs   av.it.:  17.6
      thresh= 2.670E-08 alpha_mix =  0.700 |ddv_scf|^2 =  7.484E-15

     End of self-consistent calculation

     Convergence has been achieved 


     Representation #  21 mode #  21

     Self-consistent Calculation

     Pert. #  1: Fermi energy shift (Ry) =     3.0982E-03     0.0000E+00

      iter #   1 total cpu time : 34022.9 secs   av.it.:   4.0
      thresh= 1.000E-02 alpha_mix =  0.700 |ddv_scf|^2 =  3.637E-08

     Pert. #  1: Fermi energy shift (Ry) =     1.8854E-04     0.0000E+00

      iter #   2 total cpu time : 34225.0 secs   av.it.:  17.6
      thresh= 1.907E-05 alpha_mix =  0.700 |ddv_scf|^2 =  2.116E-08

     Pert. #  1: Fermi energy shift (Ry) =     1.8533E-03     0.0000E+00

      iter #   3 total cpu time : 34420.3 secs   av.it.:  17.0
      thresh= 1.455E-05 alpha_mix =  0.700 |ddv_scf|^2 =  1.896E-10

     Pert. #  1: Fermi energy shift (Ry) =     2.0859E-03     0.0000E+00

      iter #   4 total cpu time : 34623.7 secs   av.it.:  17.8
      thresh= 1.377E-06 alpha_mix =  0.700 |ddv_scf|^2 =  1.706E-11

     Pert. #  1: Fermi energy shift (Ry) =     1.9923E-03     0.0000E+00

      iter #   5 total cpu time : 34825.4 secs   av.it.:  17.5
      thresh= 4.131E-07 alpha_mix =  0.700 |ddv_scf|^2 =  4.650E-13

     Pert. #  1: Fermi energy shift (Ry) =     2.0019E-03     0.0000E+00

      iter #   6 total cpu time : 35029.5 secs   av.it.:  17.9
      thresh= 6.819E-08 alpha_mix =  0.700 |ddv_scf|^2 =  7.130E-14

     Pert. #  1: Fermi energy shift (Ry) =     2.0002E-03     0.0000E+00

      iter #   7 total cpu time : 35230.6 secs   av.it.:  17.6
      thresh= 2.670E-08 alpha_mix =  0.700 |ddv_scf|^2 =  7.484E-15

     End of self-consistent calculation

     Convergence has been achieved 


     Representation #  22 mode #  22

     Self-consistent Calculation

     Pert. #  1: Fermi energy shift (Ry) =     3.0980E-03     0.0000E+00

      iter #   1 total cpu time : 35312.7 secs   av.it.:   4.0
      thresh= 1.000E-02 alpha_mix =  0.700 |ddv_scf|^2 =  3.637E-08

     Pert. #  1: Fermi energy shift (Ry) =     1.8906E-04     0.0000E+00

      iter #   2 total cpu time : 35514.8 secs   av.it.:  17.6
      thresh= 1.907E-05 alpha_mix =  0.700 |ddv_scf|^2 =  2.115E-08

     Pert. #  1: Fermi energy shift (Ry) =     1.8533E-03     0.0000E+00

      iter #   3 total cpu time : 35710.2 secs   av.it.:  17.0
      thresh= 1.454E-05 alpha_mix =  0.700 |ddv_scf|^2 =  1.897E-10

     Pert. #  1: Fermi energy shift (Ry) =     2.0858E-03     0.0000E+00

      iter #   4 total cpu time : 35915.8 secs   av.it.:  17.8
      thresh= 1.377E-06 alpha_mix =  0.700 |ddv_scf|^2 =  1.706E-11

     Pert. #  1: Fermi energy shift (Ry) =     1.9923E-03     0.0000E+00

      iter #   5 total cpu time : 36117.2 secs   av.it.:  17.5
      thresh= 4.130E-07 alpha_mix =  0.700 |ddv_scf|^2 =  4.650E-13

     Pert. #  1: Fermi energy shift (Ry) =     2.0019E-03     0.0000E+00

      iter #   6 total cpu time : 36322.6 secs   av.it.:  17.9
      thresh= 6.819E-08 alpha_mix =  0.700 |ddv_scf|^2 =  7.130E-14

     Pert. #  1: Fermi energy shift (Ry) =     2.0002E-03     0.0000E+00

      iter #   7 total cpu time : 36525.3 secs   av.it.:  17.6
      thresh= 2.670E-08 alpha_mix =  0.700 |ddv_scf|^2 =  7.483E-15

     End of self-consistent calculation

     Convergence has been achieved 


     Representation #  23 mode #  23

     Self-consistent Calculation

     Pert. #  1: Fermi energy shift (Ry) =    -3.0985E-03     0.0000E+00

      iter #   1 total cpu time : 36608.0 secs   av.it.:   4.0
      thresh= 1.000E-02 alpha_mix =  0.700 |ddv_scf|^2 =  3.637E-08

     Pert. #  1: Fermi energy shift (Ry) =    -1.8914E-04     0.0000E+00

      iter #   2 total cpu time : 36810.7 secs   av.it.:  17.6
      thresh= 1.907E-05 alpha_mix =  0.700 |ddv_scf|^2 =  2.116E-08

     Pert. #  1: Fermi energy shift (Ry) =    -1.8534E-03     0.0000E+00

      iter #   3 total cpu time : 37006.7 secs   av.it.:  17.0
      thresh= 1.455E-05 alpha_mix =  0.700 |ddv_scf|^2 =  1.896E-10

     Pert. #  1: Fermi energy shift (Ry) =    -2.0859E-03     0.0000E+00

      iter #   4 total cpu time : 37210.5 secs   av.it.:  17.8
      thresh= 1.377E-06 alpha_mix =  0.700 |ddv_scf|^2 =  1.706E-11

     Pert. #  1: Fermi energy shift (Ry) =    -1.9923E-03     0.0000E+00

      iter #   5 total cpu time : 37412.2 secs   av.it.:  17.5
      thresh= 4.130E-07 alpha_mix =  0.700 |ddv_scf|^2 =  4.651E-13

     Pert. #  1: Fermi energy shift (Ry) =    -2.0019E-03     0.0000E+00

      iter #   6 total cpu time : 37617.5 secs   av.it.:  17.9
      thresh= 6.820E-08 alpha_mix =  0.700 |ddv_scf|^2 =  7.131E-14

     Pert. #  1: Fermi energy shift (Ry) =    -2.0002E-03     0.0000E+00

      iter #   7 total cpu time : 37819.7 secs   av.it.:  17.6
      thresh= 2.670E-08 alpha_mix =  0.700 |ddv_scf|^2 =  7.483E-15

     End of self-consistent calculation

     Convergence has been achieved 


     Representation #  24 mode #  24

     Self-consistent Calculation

     Pert. #  1: Fermi energy shift (Ry) =    -3.0975E-03     0.0000E+00

      iter #   1 total cpu time : 37902.2 secs   av.it.:   4.0
      thresh= 1.000E-02 alpha_mix =  0.700 |ddv_scf|^2 =  3.637E-08

     Pert. #  1: Fermi energy shift (Ry) =    -1.8909E-04     0.0000E+00

      iter #   2 total cpu time : 38104.1 secs   av.it.:  17.6
      thresh= 1.907E-05 alpha_mix =  0.700 |ddv_scf|^2 =  2.116E-08

     Pert. #  1: Fermi energy shift (Ry) =    -1.8533E-03     0.0000E+00

      iter #   3 total cpu time : 38301.0 secs   av.it.:  17.0
      thresh= 1.455E-05 alpha_mix =  0.700 |ddv_scf|^2 =  1.896E-10

     Pert. #  1: Fermi energy shift (Ry) =    -2.0858E-03     0.0000E+00

      iter #   4 total cpu time : 38505.5 secs   av.it.:  17.8
      thresh= 1.377E-06 alpha_mix =  0.700 |ddv_scf|^2 =  1.706E-11

     Pert. #  1: Fermi energy shift (Ry) =    -1.9923E-03     0.0000E+00

      iter #   5 total cpu time : 38707.0 secs   av.it.:  17.5
      thresh= 4.131E-07 alpha_mix =  0.700 |ddv_scf|^2 =  4.650E-13

     Pert. #  1: Fermi energy shift (Ry) =    -2.0019E-03     0.0000E+00

      iter #   6 total cpu time : 38911.7 secs   av.it.:  17.9
      thresh= 6.819E-08 alpha_mix =  0.700 |ddv_scf|^2 =  7.130E-14

     Pert. #  1: Fermi energy shift (Ry) =    -2.0002E-03     0.0000E+00

      iter #   7 total cpu time : 39112.8 secs   av.it.:  17.6
      thresh= 2.670E-08 alpha_mix =  0.700 |ddv_scf|^2 =  7.483E-15

     End of self-consistent calculation

     Convergence has been achieved 


     Representation #  25 mode #  25

     Self-consistent Calculation

     Pert. #  1: Fermi energy shift (Ry) =    -3.0993E-03     0.0000E+00

      iter #   1 total cpu time : 39195.0 secs   av.it.:   4.0
      thresh= 1.000E-02 alpha_mix =  0.700 |ddv_scf|^2 =  3.637E-08

     Pert. #  1: Fermi energy shift (Ry) =    -1.8922E-04     0.0000E+00

      iter #   2 total cpu time : 39398.2 secs   av.it.:  17.6
      thresh= 1.907E-05 alpha_mix =  0.700 |ddv_scf|^2 =  2.115E-08

     Pert. #  1: Fermi energy shift (Ry) =    -1.8534E-03     0.0000E+00

      iter #   3 total cpu time : 39592.9 secs   av.it.:  17.0
      thresh= 1.454E-05 alpha_mix =  0.700 |ddv_scf|^2 =  1.896E-10

     Pert. #  1: Fermi energy shift (Ry) =    -2.0858E-03     0.0000E+00

      iter #   4 total cpu time : 39796.8 secs   av.it.:  17.8
      thresh= 1.377E-06 alpha_mix =  0.700 |ddv_scf|^2 =  1.706E-11

     Pert. #  1: Fermi energy shift (Ry) =    -1.9923E-03     0.0000E+00

      iter #   5 total cpu time : 39998.1 secs   av.it.:  17.5
      thresh= 4.130E-07 alpha_mix =  0.700 |ddv_scf|^2 =  4.651E-13

     Pert. #  1: Fermi energy shift (Ry) =    -2.0019E-03     0.0000E+00

      iter #   6 total cpu time : 40203.9 secs   av.it.:  17.9
      thresh= 6.820E-08 alpha_mix =  0.700 |ddv_scf|^2 =  7.130E-14

     Pert. #  1: Fermi energy shift (Ry) =    -2.0002E-03     0.0000E+00

      iter #   7 total cpu time : 40405.6 secs   av.it.:  17.6
      thresh= 2.670E-08 alpha_mix =  0.700 |ddv_scf|^2 =  7.482E-15

     End of self-consistent calculation

     Convergence has been achieved 


     Representation #  26 mode #  26

     Self-consistent Calculation

     Pert. #  1: Fermi energy shift (Ry) =     3.0984E-03     0.0000E+00

      iter #   1 total cpu time : 40488.4 secs   av.it.:   4.0
      thresh= 1.000E-02 alpha_mix =  0.700 |ddv_scf|^2 =  3.637E-08

     Pert. #  1: Fermi energy shift (Ry) =     1.8848E-04     0.0000E+00

      iter #   2 total cpu time : 40690.9 secs   av.it.:  17.6
      thresh= 1.907E-05 alpha_mix =  0.700 |ddv_scf|^2 =  2.116E-08

     Pert. #  1: Fermi energy shift (Ry) =     1.8532E-03     0.0000E+00

      iter #   3 total cpu time : 40886.1 secs   av.it.:  17.0
      thresh= 1.455E-05 alpha_mix =  0.700 |ddv_scf|^2 =  1.895E-10

     Pert. #  1: Fermi energy shift (Ry) =     2.0858E-03     0.0000E+00

      iter #   4 total cpu time : 41089.9 secs   av.it.:  17.8
      thresh= 1.377E-06 alpha_mix =  0.700 |ddv_scf|^2 =  1.706E-11

     Pert. #  1: Fermi energy shift (Ry) =     1.9924E-03     0.0000E+00

      iter #   5 total cpu time : 41290.9 secs   av.it.:  17.5
      thresh= 4.131E-07 alpha_mix =  0.700 |ddv_scf|^2 =  4.651E-13

     Pert. #  1: Fermi energy shift (Ry) =     2.0019E-03     0.0000E+00

      iter #   6 total cpu time : 41495.9 secs   av.it.:  17.9
      thresh= 6.820E-08 alpha_mix =  0.700 |ddv_scf|^2 =  7.132E-14

     Pert. #  1: Fermi energy shift (Ry) =     2.0002E-03     0.0000E+00

      iter #   7 total cpu time : 41697.0 secs   av.it.:  17.6
      thresh= 2.671E-08 alpha_mix =  0.700 |ddv_scf|^2 =  7.485E-15

     End of self-consistent calculation

     Convergence has been achieved 


     Representation #  27 mode #  27

     Self-consistent Calculation

     Pert. #  1: Fermi energy shift (Ry) =    -3.0965E-03     0.0000E+00

      iter #   1 total cpu time : 41779.7 secs   av.it.:   4.0
      thresh= 1.000E-02 alpha_mix =  0.700 |ddv_scf|^2 =  3.637E-08

     Pert. #  1: Fermi energy shift (Ry) =    -1.8844E-04     0.0000E+00

      iter #   2 total cpu time : 41982.8 secs   av.it.:  17.6
      thresh= 1.907E-05 alpha_mix =  0.700 |ddv_scf|^2 =  2.116E-08

     Pert. #  1: Fermi energy shift (Ry) =    -1.8531E-03     0.0000E+00

      iter #   3 total cpu time : 42178.4 secs   av.it.:  17.0
      thresh= 1.455E-05 alpha_mix =  0.700 |ddv_scf|^2 =  1.895E-10

     Pert. #  1: Fermi energy shift (Ry) =    -2.0858E-03     0.0000E+00

      iter #   4 total cpu time : 42381.9 secs   av.it.:  17.8
      thresh= 1.377E-06 alpha_mix =  0.700 |ddv_scf|^2 =  1.706E-11

     Pert. #  1: Fermi energy shift (Ry) =    -1.9923E-03     0.0000E+00

      iter #   5 total cpu time : 42582.3 secs   av.it.:  17.5
      thresh= 4.131E-07 alpha_mix =  0.700 |ddv_scf|^2 =  4.651E-13

     Pert. #  1: Fermi energy shift (Ry) =    -2.0019E-03     0.0000E+00

      iter #   6 total cpu time : 42787.7 secs   av.it.:  17.9
      thresh= 6.820E-08 alpha_mix =  0.700 |ddv_scf|^2 =  7.131E-14

     Pert. #  1: Fermi energy shift (Ry) =    -2.0002E-03     0.0000E+00

      iter #   7 total cpu time : 42989.2 secs   av.it.:  17.6
      thresh= 2.670E-08 alpha_mix =  0.700 |ddv_scf|^2 =  7.485E-15

     End of self-consistent calculation

     Convergence has been achieved 


     Representation #  28 mode #  28

     Self-consistent Calculation

     Pert. #  1: Fermi energy shift (Ry) =     3.0979E-03     0.0000E+00

      iter #   1 total cpu time : 43072.1 secs   av.it.:   4.0
      thresh= 1.000E-02 alpha_mix =  0.700 |ddv_scf|^2 =  3.637E-08
