
     Program PHONON v.6.7MaX starts on  1Jun2026 at  0:29:22 

     This program is part of the open-source Quantum ESPRESSO suite
     for quantum simulation of materials; please cite
         "P. Giannozzi et al., J. Phys.:Condens. Matter 21 395502 (2009);
         "P. Giannozzi et al., J. Phys.:Condens. Matter 29 465901 (2017);
          URL http://www.quantum-espresso.org", 
     in publications or presentations arising from this work. More details at
     http://www.quantum-espresso.org/quote

     Parallel version (MPI), running on     8 processors

     MPI processes distributed on     1 nodes
     R & G space division:  proc/nbgrp/npool/nimage =       8
     Reading input from ph.in

     Reading xml data from directory:

     ./out/ysbh6.save/
     file Y.pbe-spn-rrkjus_psl.1.0.0.UPF: wavefunction(s)  4S renormalized
     file Sb.pbe-n-rrkjus_psl.1.0.0.UPF: wavefunction(s)  5S renormalized

     IMPORTANT: XC functional enforced from input :
     Exchange-correlation= PBE
                           (   1   4   3   4   0   0   0)
     Any further DFT definition will be discarded
     Please, verify this is what you really want


     Parallelization info
     --------------------
     sticks:   dense  smooth     PW     G-vecs:    dense   smooth      PW
     Min         309     154     45                11645     4122     657
     Max         310     155     47                11646     4125     658
     Sum        2477    1237    365                93165    32987    5257

     Reading collected, re-writing distributed wavefunctions

     Saving dvscf to file. Distribute only q points, not irreducible represetations.
       36 /  36 q-points for this run, from  1 to 36:
       N       xq(1)         xq(2)         xq(3) 
       1   0.000000000   0.000000000   0.000000000
       2   0.000000000   0.000000000   0.250000000
       3   0.000000000   0.000000000  -0.500000000
       4   0.000000000   0.250000000   0.000000000
       5   0.000000000   0.250000000   0.250000000
       6   0.000000000   0.250000000  -0.500000000
       7   0.000000000   0.250000000  -0.250000000
       8   0.000000000  -0.500000000   0.000000000
       9   0.000000000  -0.500000000   0.250000000
      10   0.000000000  -0.500000000  -0.500000000
      11   0.250000000   0.000000000   0.000000000
      12   0.250000000   0.000000000   0.250000000
      13   0.250000000   0.000000000  -0.500000000
      14   0.250000000   0.000000000  -0.250000000
      15   0.250000000   0.250000000   0.000000000
      16   0.250000000   0.250000000   0.250000000
      17   0.250000000   0.250000000  -0.500000000
      18   0.250000000   0.250000000  -0.250000000
      19   0.250000000  -0.500000000   0.000000000
      20   0.250000000  -0.500000000   0.250000000
      21   0.250000000  -0.500000000  -0.500000000
      22   0.250000000  -0.500000000  -0.250000000
      23   0.250000000  -0.250000000   0.000000000
      24   0.250000000  -0.250000000   0.250000000
      25   0.250000000  -0.250000000  -0.500000000
      26   0.250000000  -0.250000000  -0.250000000
      27  -0.500000000   0.000000000   0.000000000
      28  -0.500000000   0.000000000   0.250000000
      29  -0.500000000   0.000000000  -0.500000000
      30  -0.500000000   0.250000000   0.000000000
      31  -0.500000000   0.250000000   0.250000000
      32  -0.500000000   0.250000000  -0.500000000
      33  -0.500000000   0.250000000  -0.250000000
      34  -0.500000000  -0.500000000   0.000000000
      35  -0.500000000  -0.500000000   0.250000000
      36  -0.500000000  -0.500000000  -0.500000000


     Calculation of q =    0.0000000   0.0000000   0.0000000
     Message from routine ph_restart_set_filename :
     cannot open file for reading or writing
 end of file reached, closing tag not found
warning: file closed at level 1 with tag Root open
     Message from routine ph_restart_set_filename :
     cannot open file for reading or writing
     Message from routine ph_restart_set_filename :
     cannot open file for reading or writing
     Message from routine ph_restart_set_filename :
     cannot open file for reading or writing
     Message from routine ph_restart_set_filename :
     cannot open file for reading or writing
     Message from routine ph_restart_set_filename :
     cannot open file for reading or writing
     Message from routine ph_restart_set_filename :
     cannot open file for reading or writing
     Message from routine ph_restart_set_filename :
     cannot open file for reading or writing
     Message from routine ph_restart_set_filename :
     cannot open file for reading or writing
     Message from routine ph_restart_set_filename :
     cannot open file for reading or writing
     Message from routine ph_restart_set_filename :
     cannot open file for reading or writing
     Message from routine ph_restart_set_filename :
     cannot open file for reading or writing
     Message from routine ph_restart_set_filename :
     cannot open file for reading or writing
     Message from routine ph_restart_set_filename :
     cannot open file for reading or writing
     Message from routine ph_restart_set_filename :
     cannot open file for reading or writing
     Message from routine ph_restart_set_filename :
     cannot open file for reading or writing
     Message from routine ph_restart_set_filename :
     cannot open file for reading or writing
     Message from routine ph_restart_set_filename :
     cannot open file for reading or writing
     Message from routine ph_restart_set_filename :
     cannot open file for reading or writing
     Message from routine ph_restart_set_filename :
     cannot open file for reading or writing
     Message from routine ph_restart_set_filename :
     cannot open file for reading or writing
     Message from routine ph_restart_set_filename :
     cannot open file for reading or writing
     Message from routine ph_restart_set_filename :
     cannot open file for reading or writing
     Message from routine ph_restart_set_filename :
     cannot open file for reading or writing
     Message from routine ph_restart_set_filename :
     cannot open file for reading or writing
     Message from routine ph_restart_set_filename :
     cannot open file for reading or writing
     Message from routine ph_restart_set_filename :
     cannot open file for reading or writing
     Message from routine ph_restart_set_filename :
     cannot open file for reading or writing
     Message from routine ph_restart_set_filename :
     cannot open file for reading or writing
     Message from routine ph_restart_set_filename :
     cannot open file for reading or writing
     Message from routine ph_restart_set_filename :
     cannot open file for reading or writing
     Message from routine ph_restart_set_filename :
     cannot open file for reading or writing
     Message from routine ph_restart_set_filename :
     cannot open file for reading or writing
     Message from routine ph_restart_set_filename :
     cannot open file for reading or writing
     Message from routine ph_restart_set_filename :
     cannot open file for reading or writing
     Message from routine ph_restart_set_filename :
     cannot open file for reading or writing
     Message from routine ph_restart_set_filename :
     cannot open file for reading or writing
     Message from routine ph_restart_set_filename :
     cannot open file for reading or writing
     Message from routine ph_restart_set_filename :
     cannot open file for reading or writing
     Message from routine ph_restart_set_filename :
     cannot open file for reading or writing
     Message from routine ph_restart_set_filename :
     cannot open file for reading or writing
     Message from routine ph_restart_set_filename :
     cannot open file for reading or writing
     Message from routine ph_restart_set_filename :
     cannot open file for reading or writing
     Message from routine ph_restart_set_filename :
     cannot open file for reading or writing
     Message from routine ph_restart_set_filename :
     cannot open file for reading or writing
     Message from routine ph_restart_set_filename :
     cannot open file for reading or writing
     Message from routine ph_restart_set_filename :
     cannot open file for reading or writing
     Message from routine ph_restart_set_filename :
     cannot open file for reading or writing
     Message from routine ph_restart_set_filename :
     cannot open file for reading or writing

     Restart in Phonon calculation

     YSbH6 phonon + electron-phonon 4x4x4 q (A15 ternary hydride · Cr3Si motif)

     bravais-lattice index     =            0
     lattice parameter (alat)  =       6.9865  a.u.
     unit-cell volume          =     341.0203 (a.u.)^3
     number of atoms/cell      =            8
     number of atomic types    =            3
     kinetic-energy cut-off    =      80.0000  Ry
     charge density cut-off    =     640.0000  Ry
     convergence threshold     =      1.0E-14
     beta                      =       0.7000
     number of iterations used =            4
     Exchange-correlation= PBE
                           (   1   4   3   4   0   0   0)


     celldm(1)=    6.98651  celldm(2)=    0.00000  celldm(3)=    0.00000
     celldm(4)=    0.00000  celldm(5)=    0.00000  celldm(6)=    0.00000

     crystal axes: (cart. coord. in units of alat)
               a(1) = (  1.0000  0.0000  0.0000 )  
               a(2) = (  0.0000  1.0000  0.0000 )  
               a(3) = (  0.0000  0.0000  1.0000 )  

  
     Pert. #  1: Fermi energy shift (Ry) =    -6.7264E-09     0.0000E+00

      iter #   2 total cpu time :   593.8 secs   av.it.:  16.7
      thresh= 9.759E-05 alpha_mix =  0.700 |ddv_scf|^2 =  4.219E-07
     kpoint   1 ibnd  12 solve_linter: root not converged  2.339E-04
     kpoint   4 ibnd  12 solve_linter: root not converged  9.771E-05
     kpoint   6 ibnd  13 solve_linter: root not converged  1.017E-04
     kpoint   7 ibnd  13 solve_linter: root not converged  1.172E-04
     kpoint   8 ibnd  13 solve_linter: root not converged  1.347E-04
     kpoint   9 ibnd  13 solve_linter: root not converged  2.947E-04
     kpoint  11 ibnd  12 solve_linter: root not converged  1.837E-04
     kpoint  15 ibnd  12 solve_linter: root not converged  2.979E-04
     kpoint  16 ibnd  13 solve_linter: root not converged  2.773E-04
     kpoint  17 ibnd  13 solve_linter: root not converged  3.110E-04
     kpoint  18 ibnd  13 solve_linter: root not converged  7.007E-04
     kpoint  19 ibnd  13 solve_linter: root not converged  2.097E-04
     kpoint  21 ibnd  12 solve_linter: root not converged  7.901E-05
     kpoint  25 ibnd  12 solve_linter: root not converged  7.163E-05
     kpoint  26 ibnd  12 solve_linter: root not converged  4.070E-04
     kpoint  29 ibnd  12 solve_linter: root not converged  6.425E-05
     kpoint  30 ibnd  12 solve_linter: root not converged  7.314E-04
     kpoint  31 ibnd  12 solve_linter: root not converged  9.824E-05
     kpoint  33 ibnd  13 solve_linter: root not converged  1.521E-02
     kpoint  34 ibnd  13 solve_linter: root not converged  1.542E-04
     kpoint  35 ibnd  13 solve_linter: root not converged  1.711E-03
     kpoint  36 ibnd  13 solve_linter: root not converged  9.303E-05
     kpoint  37 ibnd  12 solve_linter: root not converged  1.130E-04
     kpoint  39 ibnd  12 solve_linter: root not converged  6.835E-04
     kpoint  42 ibnd  12 solve_linter: root not converged  9.159E-05
     kpoint  43 ibnd  12 solve_linter: root not converged  3.341E-04
     kpoint  46 ibnd  12 solve_linter: root not converged  5.351E-04
     kpoint  47 ibnd  12 solve_linter: root not converged  2.003E-04
     kpoint  51 ibnd  12 solve_linter: root not converged  6.128E-04
     kpoint  56 ibnd  12 solve_linter: root not converged  1.036E-04
     kpoint  57 ibnd  12 solve_linter: root not converged  1.917E-04
     kpoint  59 ibnd  12 solve_linter: root not converged  9.064E-05
     kpoint  60 ibnd  12 solve_linter: root not converged  2.037E-02
     kpoint  61 ibnd  12 solve_linter: root not converged  2.163E-04
     kpoint  62 ibnd  12 solve_linter: root not converged  9.672E-04
     kpoint  64 ibnd  12 solve_linter: root not converged  1.218E-03
     kpoint  66 ibnd  12 solve_linter: root not converged  1.942E-04
     kpoint  69 ibnd  12 solve_linter: root not converged  8.138E-05
     kpoint  71 ibnd  12 solve_linter: root not converged  7.113E-05
     kpoint  72 ibnd  12 solve_linter: root not converged  5.214E-04
     kpoint  73 ibnd  12 solve_linter: root not converged  7.190E-04
     kpoint  74 ibnd  13 solve_linter: root not converged  2.511E-04
     kpoint  75 ibnd  13 solve_linter: root not converged  8.402E-05
     kpoint  76 ibnd  13 solve_linter: root not converged  1.131E-04
     kpoint  77 ibnd  13 solve_linter: root not converged  9.321E-05
     kpoint  78 ibnd  13 solve_linter: root not converged  1.641E-04
     kpoint  81 ibnd  13 solve_linter: root not converged  9.805E-05
     kpoint  82 ibnd  12 solve_linter: root not converged  1.767E-04
     kpoint  83 ibnd  13 solve_linter: root not converged  6.739E-05
     kpoint  87 ibnd  13 solve_linter: root not converged  5.386E-03
     kpoint  88 ibnd  13 solve_linter: root not converged  8.047E-05
     kpoint  89 ibnd  13 solve_linter: root not converged  1.069E-03
     kpoint  90 ibnd  13 solve_linter: root not converged  1.169E-04
     kpoint  91 ibnd  13 solve_linter: root not converged  7.631E-05
     kpoint  92 ibnd  13 solve_linter: root not converged  5.193E-03
     kpoint  93 ibnd  13 solve_linter: root not converged  5.231E-04
     kpoint  95 ibnd  13 solve_linter: root not converged  4.889E-02
     kpoint  96 ibnd  13 solve_linter: root not converged  8.730E-05
     kpoint  97 ibnd  13 solve_linter: root not converged  9.143E-05
     kpoint 100 ibnd  13 solve_linter: root not converged  8.940E-05
     kpoint 101 ibnd  13 solve_linter: root not converged  2.422E-04
     kpoint 102 ibnd  13 solve_linter: root not converged  2.469E-02
     kpoint 104 ibnd  13 solve_linter: root not converged  1.971E-03
     kpoint 105 ibnd  13 solve_linter: root not converged  7.380E-05
     kpoint 106 ibnd  13 solve_linter: root not converged  1.282E-04
     kpoint 107 ibnd  13 solve_linter: root not converged  2.871E-04
     kpoi
     Pert. #  1: Fermi energy shift (Ry) =    -1.4478E-03     0.0000E+00

      iter #   5 total cpu time :   218.8 secs   av.it.:   6.6
      thresh= 8.874E-03 alpha_mix =  0.700 |ddv_scf|^2 =  1.326E-05

     Pert. #  1: Fermi energy shift (Ry) =    -1.4622E-03     0.0000E+00

      iter #   6 total cpu time :   270.6 secs   av.it.:   7.5
      thresh= 3.642E-04 alpha_mix =  0.700 |ddv_scf|^2 =  1.345E-05

     Pert. #  1: Fermi energy shift (Ry) =    -1.1958E-03     0.0000E+00

      iter #   7 total cpu time :   319.0 secs   av.it.:   6.8
      thresh= 3.667E-04 alpha_mix =  0.700 |ddv_scf|^2 =  1.266E-05

     Pert. #  1: Fermi energy shift (Ry) =    -9.8469E-03     0.0000E+00

      iter #   8 total cpu time :   389.4 secs   av.it.:  11.0
      thresh= 3.558E-04 alpha_mix =  0.700 |ddv_scf|^2 =  7.003E-07

     Pert. #  1: Fermi energy shift (Ry) =    -7.1701E-04     0.0000E+00

      iter #   9 total cpu time :   471.7 secs   av.it.:  13.1
      thresh= 8.368E-05 alpha_mix =  0.700 |ddv_scf|^2 =  6.245E-10

     Pert. #  1: Fermi energy shift (Ry) =    -1.7068E-03     0.0000E+00

      iter #  10 total cpu time :   564.8 secs   av.it.:  15.0
      thresh= 2.499E-06 alpha_mix =  0.700 |ddv_scf|^2 =  8.515E-11

     Pert. #  1: Fermi energy shift (Ry) =    -1.2451E-03     0.0000E+00

      iter #  11 total cpu time :   654.5 secs   av.it.:  14.5
      thresh= 9.228E-07 alpha_mix =  0.700 |ddv_scf|^2 =  5.355E-12

     Pert. #  1: Fermi energy shift (Ry) =    -1.3458E-03     0.0000E+00

      iter #  12 total cpu time :   743.6 secs   av.it.:  14.4
      thresh= 2.314E-07 alpha_mix =  0.700 |ddv_scf|^2 =  2.944E-13

     Pert. #  1: Fermi energy shift (Ry) =    -1.3347E-03     0.0000E+00

      iter #  13 total cpu time :   832.6 secs   av.it.:  14.3
      thresh= 5.426E-08 alpha_mix =  0.700 |ddv_scf|^2 =  2.042E-15

     End of self-consistent calculation

     Convergence has been achieved 


     Representation #   2 mode #   2

     Self-consistent Calculation

     Pert. #  1: Fermi energy shift (Ry) =     2.5171E-03    -8.4703E-22

      iter #   1 total cpu time :   897.2 secs   av.it.:   7.5
      thresh= 1.000E-02 alpha_mix =  0.700 |ddv_scf|^2 =  1.274E-05

     Pert. #  1: Fermi energy shift (Ry) =     2.9701E-03    -1.3235E-23

      iter #   2 total cpu time :   975.5 secs   av.it.:  12.5
      thresh= 3.569E-04 alpha_mix =  0.700 |ddv_scf|^2 =  1.811E-06

     Pert. #  1: Fermi energy shift (Ry) =     2.8994E-03     1.3235E-23

      iter #   3 total cpu time :  1057.1 secs   av.it.:  13.0
      thresh= 1.346E-04 alpha_mix =  0.700 |ddv_scf|^2 =  3.190E-07

     Pert. #  1: Fermi energy shift (Ry) =     2.9592E-03    -6.6174E-24

      iter #   4 total cpu time :  1137.2 secs   av.it.:  12.7
      thresh= 5.648E-05 alpha_mix =  0.700 |ddv_scf|^2 =  3.623E-10

     Pert. #  1: Fermi energy shift (Ry) =     2.9536E-03    -1.0340E-25

      iter #   5 total cpu time :  1225.0 secs   av.it.:  14.2
      thresh= 1.903E-06 alpha_mix =  0.700 |ddv_scf|^2 =  5.315E-13

     Pert. #  1: Fermi energy shift (Ry) =     2.9564E-03     5.1699E-26

      iter #   6 total cpu time :  1313.2 secs   av.it.:  14.2
      thresh= 7.291E-08 alpha_mix =  0.700 |ddv_scf|^2 =  4.140E-14

     Pert. #  1: Fermi energy shift (Ry) =     2.9537E-03     5.1699E-26

      iter #   7 total cpu time :  1403.2 secs   av.it.:  14.5
      thresh= 2.035E-08 alpha_mix =  0.700 |ddv_scf|^2 =  1.445E-15

     End of self-consistent calculation

     Convergence has been achieved 


     Representation #   3 mode #   3

     Self-consistent Calculation

     Pert. #  1: Fermi energy shift (Ry) =     4.2120E-04    -1.0588E-22

      iter #   1 total cpu time :  1467.8 secs   av.it.:   7.5
      thresh= 1.000E-02 alpha_mix =  0.700 |ddv_scf|^2 =  1.089E-05

     Pert. #  1: Fermi energy shift (Ry) =     6.0876E-04    -1.3235E-23

      iter #   2 total cpu time :  1547.1 secs   av.it.:  12.6
      thresh= 3.300E-04 alpha_mix =  0.700 |ddv_scf|^2 =  1.641E-06

     Pert. #  1: Fermi energy shift (Ry) =     6.4368E-04    -8.2718E-25

      iter #   3 total cpu time :  1629.5 secs   av.it.:  12.9
      thresh= 1.281E-04 alpha_mix =  0.700 |ddv_scf|^2 =  2.620E-07

     Pert. #  1: Fermi energy shift (Ry) =     7.2567E-04     1.0340E-25

      iter #   4 total cpu time :  1707.4 secs   av.it.:  12.4
      thresh= 5.119E-05 alpha_mix =  0.700 |ddv_scf|^2 =  3.630E-10

     Pert. #  1: Fermi energy shift (Ry) =     7.2461E-04    -5.1699E-26

      iter #   5 total cpu time :  1792.0 secs   av.it.:  13.5
      thresh= 1.905E-06 alpha_mix =  0.700 |ddv_scf|^2 =  4.894E-13

     Pert. #  1: Fermi energy shift (Ry) =     7.2756E-04     6.4623E-27

      iter #   6 total cpu time :  1878.2 secs   av.it.:  13.8
      thresh= 6.996E-08 alpha_mix =  0.700 |ddv_scf|^2 =  1.818E-12

     Pert. #  1: Fermi energy shift (Ry) =     7.2778E-04    -5.1699E-26

      iter #   7 total cpu time :  1939.3 secs   av.it.:   9.3
      thresh= 1.348E-07 alpha_mix =  0.700 |ddv_scf|^2 =  3.945E-14

     Pert. #  1: Fermi energy shift (Ry) =     7.2781E-04     1.6156E-27

      iter #   8 total cpu time :  2025.4 secs   av.it.:  13.7
      thresh= 1.986E-08 alpha_mix =  0.700 |ddv_scf|^2 =  1.871E-15

     End of self-consistent calculation

     Convergence has been achieved 


     Representation #   4 mode #   4

     Self-consistent Calculation

     Pert. #  1: Fermi energy shift (Ry) =    -3.8618E-03     0.0000E+00

      iter #   1 total cpu time :  2078.4 secs   av.it.:   5.3
      thresh= 1.000E-02 alpha_mix =  0.700 |ddv_scf|^2 =  6.552E-06

     Pert. #  1: Fermi energy shift (Ry) =    -4.8309E-03     0.0000E+00

      iter #   2 total cpu time :  2144.3 secs   av.it.:  10.1
      thresh= 2.560E-04 alpha_mix =  0.700 |ddv_scf|^2 =  6.004E-07

     Pert. #  1: Fermi energy shift (Ry) =    -4.9188E-03     0.0000E+00

      iter #   3 total cpu time :  2218.8 secs   av.it.:  11.7
      thresh= 7.748E-05 alpha_mix =  0.700 |ddv_scf|^2 =  2.357E-08

     Pert. #  1: Fermi energy shift (Ry) =    -5.1077E-03     0.0000E+00

      iter #   4 total cpu time :  2302.0 secs   av.it.:  13.3
      thresh= 1.535E-05 alpha_mix =  0.700 |ddv_scf|^2 =  4.138E-12

     Pert. #  1: Fermi energy shift (Ry) =    -5.0949E-03     0.0000E+00

      iter #   5 total cpu time :  2391.2 secs   av.it.:  14.3
      thresh= 2.034E-07 alpha_mix =  0.700 |ddv_scf|^2 =  1.249E-13

     Pert. #  1: Fermi energy shift (Ry) =    -5.1094E-03     0.0000E+00

      iter #   6 total cpu time :  2482.4 secs   av.it.:  14.8
      thresh= 3.535E-08 alpha_mix =  0.700 |ddv_scf|^2 =  2.325E-14

     Pert. #  1: Fermi energy shift (Ry) =    -5.1016E-03     0.0000E+00

      iter #   7 total cpu time :  2572.7 secs   av.it.:  14.6
      thresh= 1.525E-08 alpha_mix =  0.700 |ddv_scf|^2 =  1.420E-15

     End of self-consistent calculation

     Convergence has been achieved 


     Representation #   5 mode #   5

     Self-consistent Calculation

     Pert. #  1: Fermi energy shift (Ry) =     3.0701E-03    -1.6941E-21

      iter #   1 total cpu time :  2625.8 secs   av.it.:   5.3
      thresh= 1.000E-02 alpha_mix =  0.700 |ddv_scf|^2 =  1.012E-05

     Pert. #  1: Fermi energy shift (Ry) =     3.4165E-03    -6.6174E-24

      iter #   2 total cpu time :  2690.0 secs   av.it.:   9.9
      thresh= 3.180E-04 alpha_mix =  0.700 |ddv_scf|^2 =  9.222E-07

     Pert. #  1: Fermi energy shift (Ry) =     2.3057E-03    -2.0680E-25

      iter #   3 total cpu time :  2763.4 secs   av.it.:  11.6
      thresh= 9.603E-05 alpha_mix =  0.700 |ddv_scf|^2 =  2.601E-08

     Pert. #  1: Fermi energy shift (Ry) =     2.8204E-03     8.2718E-25

      iter #   4 total cpu time :  2847.2 secs   av.it.:  13.4
      thresh= 1.613E-05 alpha_mix =  0.700 |ddv_scf|^2 =  4.669E-12

     Pert. #  1: Fermi energy shift (Ry) =     2.7619E-03    -5.1699E-26

      iter #   5 total cpu time :  2939.1 secs   av.it.:  14.9
      thresh= 2.161E-07 alpha_mix =  0.700 |ddv_scf|^2 =  3.749E-13

     Pert. #  1: Fermi energy shift (Ry) =     2.7938E-03    -5.1699E-26

      iter #   6 total cpu time :  3030.9 secs   av.it.:  14.8
      thresh= 6.123E-08 alpha_mix =  0.700 |ddv_scf|^2 =  5.568E-14

     Pert. #  1: Fermi energy shift (Ry) =     2.7837E-03    -5.1699E-26

      iter #   7 total cpu time :  3121.6 secs   av.it.:  14.7
      thresh= 2.360E-08 alpha_mix =  0.700 |ddv_scf|^2 =  1.057E-15

     End of self-consistent calculation

     Convergence has been achieved 


     Representation #   6 mode #   6

     Self-consistent Calculation

     Pert. #  1: Fermi energy shift (Ry) =     1.7681E-03    -1.0588E-22

      iter #   1 total cpu time :  3175.3 secs   av.it.:   5.3
      thresh= 1.000E-02 alpha_mix =  0.700 |ddv_scf|^2 =  7.223E-06

     Pert. #  1: Fermi energy shift (Ry) =     2.4166E-03     4.1359E-25

      iter #   2 total cpu time :  3238.8 secs   av.it.:   9.7
      thresh= 2.687E-04 alpha_mix =  0.700 |ddv_scf|^2 =  6.614E-07

     Pert. #  1: Fermi energy shift (Ry) =     2.5558E-03     1.6544E-24

      iter #   3 total cpu time :  3310.5 secs   av.it.:  11.3
      thresh= 8.133E-05 alpha_mix =  0.700 |ddv_scf|^2 =  2.505E-08

     Pert. #  1: Fermi energy shift (Ry) =     2.6200E-03    -2.5849E-26

      iter #   4 total cpu time :  3390.2 secs   av.it.:  12.7
      thresh= 1.583E-05 alpha_mix =  0.700 |ddv_scf|^2 =  3.988E-12

     Pert. #  1: Fermi energy shift (Ry) =     2.6280E-03     6.4623E-27

      iter #   5 total cpu time :  3472.8 secs   av.it.:  13.2
      thresh= 1.997E-07 alpha_mix =  0.700 |ddv_scf|^2 =  9.054E-14

     Pert. #  1: Fermi energy shift (Ry) =     2.6342E-03     3.2312E-27

      iter #   6 total cpu time :  3553.7 secs   av.it.:  12.9
      thresh= 3.009E-08 alpha_mix =  0.700 |ddv_scf|^2 =  3.744E-15

     End of self-consistent calculation

     Convergence has been achieved 


     Representation #   7 mode #   7

     Self-consistent Calculation

     Pert. #  1: Fermi energy shift (Ry) =    -2.9913E-03     0.0000E+00

      iter #   1 total cpu time :  3602.9 secs   av.it.:   4.7
      thresh= 1.000E-02 alpha_mix =  0.700 |ddv_scf|^2 =  2.939E-07

     Pert. #  1: Fermi energy shift (Ry) =     5.4646E-03     0.0000E+00

      iter #   2 total cpu time :  3676.6 secs   av.it.:  11.6
      thresh= 5.421E-05 alpha_mix =  0.700 |ddv_scf|^2 =  3.038E-08

     Pert. #  1: Fermi energy shift (Ry) =    -5.3241E-04     0.0000E+00

      iter #   3 total cpu time :  3757.0 secs   av.it.:  12.8
      thresh= 1.743E-05 alpha_mix =  0.700 |ddv_scf|^2 =  6.062E-09

     Pert. #  1: Fermi energy shift (Ry) =     2.2376E-03     0.0000E+00

      iter #   4 total cpu time :  3838.1 secs   av.it.:  12.9
      thresh= 7.786E-06 alpha_mix =  0.700 |ddv_scf|^2 =  1.648E-11

     Pert. #  1: Fermi energy shift (Ry) =     2.0632E-03     0.0000E+00

      iter #   5 total cpu time :  3921.7 secs   av.it.:  13.4
      thresh= 4.059E-07 alpha_mix =  0.700 |ddv_scf|^2 =  1.250E-12

     Pert. #  1: Fermi energy shift (Ry) =     2.1000E-03     0.0000E+00

      iter #   6 total cpu time :  4003.3 secs   av.it.:  13.0
      thresh= 1.118E-07 alpha_mix =  0.700 |ddv_scf|^2 =  4.412E-15

     End of self-consistent calculation

     Convergence has been achieved 


     Representation #   8 mode #   8

     Self-consistent Calculation

     Pert. #  1: Fermi energy shift (Ry) =     3.6585E-05    -1.0588E-22

      iter #   1 total cpu time :  4052.8 secs   av.it.:   4.7
      thresh= 1.000E-02 alpha_mix =  0.700 |ddv_scf|^2 =  2.656E-07

     Pert. #  1: Fermi energy shift (Ry) =    -8.7451E-05    -1.6544E-24

      iter #   2 total cpu time :  4127.0 secs   av.it.:  11.7
      thresh= 5.153E-05 alpha_mix =  0.700 |ddv_scf|^2 =  2.673E-08

     Pert. #  1: Fermi energy shift (Ry) =    -5.1675E-05     8.2718E-25

      iter #   3 total cpu time :  4205.6 secs   av.it.:  12.5
      thresh= 1.635E-05 alpha_mix =  0.700 |ddv_scf|^2 =  4.458E-09

     Pert. #  1: Fermi energy shift (Ry) =    -7.4174E-05    -4.1359E-25

      iter #   4 total cpu time :  4285.2 secs   av.it.:  12.7
      thresh= 6.677E-06 alpha_mix =  0.700 |ddv_scf|^2 =  7.028E-12

     Pert. #  1: Fermi energy shift (Ry) =    -7.1359E-05     1.6156E-27

      iter #   5 total cpu time :  4368.8 secs   av.it.:  13.4
      thresh= 2.651E-07 alpha_mix =  0.700 |ddv_scf|^2 =  2.619E-14

     Pert. #  1: Fermi energy shift (Ry) =    -7.2216E-05    -2.5849E-26

      iter #   6 total cpu time :  4454.4 secs   av.it.:  13.8
      thresh= 1.618E-08 alpha_mix =  0.700 |ddv_scf|^2 =  1.025E-15

     End of self-consistent calculation

     Convergence has been achieved 


     Representation #   9 mode #   9

     Self-consistent Calculation

     Pert. #  1: Fermi energy shift (Ry) =    -3.2477E-04    -2.1176E-22

      iter #   1 total cpu time :  4506.0 secs   av.it.:   5.1
      thresh= 1.000E-02 alpha_mix =  0.700 |ddv_scf|^2 =  2.731E-07

     Pert. #  1: Fermi energy shift (Ry) =    -4.3423E-04     1.0340E-25

      iter #   2 total cpu time :  4581.6 secs   av.it.:  11.9
      thresh= 5.226E-05 alpha_mix =  0.700 |ddv_scf|^2 =  2.911E-08

     Pert. #  1: Fermi energy shift (Ry) =    -5.0788E-04    -2.0680E-25

      iter #   3 total cpu time :  4661.0 secs   av.it.:  12.7
      thresh= 1.706E-05 alpha_mix =  0.700 |ddv_scf|^2 =  5.680E-09

     Pert. #  1: Fermi energy shift (Ry) =    -5.0170E-04    -5.1699E-26

      iter #   4 total cpu time :  4740.5 secs   av.it.:  12.7
      thresh= 7.536E-06 alpha_mix =  0.700 |ddv_scf|^2 =  3.263E-12

     Pert. #  1: Fermi energy shift (Ry) =    -5.0133E-04     1.6156E-27

      iter #   5 total cpu time :  4824.5 secs   av.it.:  13.5
      thresh= 1.806E-07 alpha_mix =  0.700 |ddv_scf|^2 =  4.041E-14

     Pert. #  1: Fermi energy shift (Ry) =    -5.0012E-04     1.6156E-27

      iter #   6 total cpu time :  4910.9 secs   av.it.:  13.9
      thresh= 2.010E-08 alpha_mix =  0.700 |ddv_scf|^2 =  1.351E-15

     End of self-consistent calculation

     Convergence has been achieved 


     Representation #  10 mode #  10

     Self-consistent Calculation

     Pert. #  1: Fermi energy shift (Ry) =     2.3780E-03     0.0000E+00

      iter #   1 total cpu time :  4960.0 secs   av.it.:   4.7
      thresh= 1.000E-02 alpha_mix =  0.700 |ddv_scf|^2 =  2.904E-07

     Pert. #  1: Fermi energy shift (Ry) =    -5.7661E-03     0.0000E+00

      iter #   2 total cpu time :  5033.9 secs   av.it.:  11.6
      thresh= 5.389E-05 alpha_mix =  0.700 |ddv_scf|^2 =  3.001E-08

     Pert. #  1: Fermi energy shift (Ry) =     1.4443E-04     0.0000E+00

      iter #   3 total cpu time :  5114.2 secs   av.it.:  12.8
      thresh= 1.732E-05 alpha_mix =  0.700 |ddv_scf|^2 =  5.966E-09

     Pert. #  1: Fermi energy shift (Ry) =    -2.5634E-03     0.0000E+00

      iter #   4 total cpu time :  5195.4 secs   av.it.:  12.9
      thresh= 7.724E-06 alpha_mix =  0.700 |ddv_scf|^2 =  1.645E-11

     Pert. #  1: Fermi energy shift (Ry) =    -2.3903E-03     0.0000E+00

      iter #   5 total cpu time :  5279.2 secs   av.it.:  13.4
      thresh= 4.056E-07 alpha_mix =  0.700 |ddv_scf|^2 =  1.263E-12

     Pert. #  1: Fermi energy shift (Ry) =    -2.4285E-03     0.0000E+00

      iter #   6 total cpu time :  5360.7 secs   av.it.:  13.0
      thresh= 1.124E-07 alpha_mix =  0.700 |ddv_scf|^2 =  4.590E-15

     End of self-consistent calculation

     Convergence has been achieved 


     Representation #  11 mode #  11

     Self-consistent Calculation

     Pert. #  1: Fermi energy shift (Ry) =     6.5983E-04    -1.0588E-22

      iter #   1 total cpu time :  5409.9 secs   av.it.:   4.7
      thresh= 1.000E-02 alpha_mix =  0.700 |ddv_scf|^2 =  3.202E-07

     Pert. #  1: Fermi energy shift (Ry) =     8.7384E-04    -1.6544E-24

      iter #   2 total cpu time :  5483.4 secs   av.it.:  11.6
      thresh= 5.659E-05 alpha_mix =  0.700 |ddv_scf|^2 =  3.169E-08

     Pert. #  1: Fermi energy shift (Ry) =     9.0515E-04     8.2718E-25

      iter #   3 total cpu time :  5561.7 secs   av.it.:  12.5
      thresh= 1.780E-05 alpha_mix =  0.700 |ddv_scf|^2 =  4.896E-09

     Pert. #  1: Fermi energy shift (Ry) =     9.1592E-04    -1.0340E-25

      iter #   4 total cpu time :  5641.6 secs   av.it.:  12.7
      thresh= 6.997E-06 alpha_mix =  0.700 |ddv_scf|^2 =  7.131E-12

     Pert. #  1: Fermi energy shift (Ry) =     9.1293E-04    -6.4623E-27

      iter #   5 total cpu time :  5725.1 secs   av.it.:  13.4
      thresh= 2.670E-07 alpha_mix =  0.700 |ddv_scf|^2 =  2.535E-14

     Pert. #  1: Fermi energy shift (Ry) =     9.1251E-04    -2.5849E-26

      iter #   6 total cpu time :  5810.2 secs   av.it.:  13.7
      thresh= 1.592E-08 alpha_mix =  0.700 |ddv_scf|^2 =  8.553E-16

     End of self-consistent calculation

     Convergence has been achieved 


     Representation #  12 mode #  12

     Self-consistent Calculation

     Pert. #  1: Fermi energy shift (Ry) =    -2.1215E-04    -2.1176E-22

      iter #   1 total cpu time :  5862.3 secs   av.it.:   5.1
      thresh= 1.000E-02 alpha_mix =  0.700 |ddv_scf|^2 =  2.928E-07

     Pert. #  1: Fermi energy shift (Ry) =    -9.5931E-04     4.1359E-25

      iter #   2 total cpu time :  5937.7 secs   av.it.:  11.8
      thresh= 5.411E-05 alpha_mix =  0.700 |ddv_scf|^2 =  3.026E-08

     Pert. #  1: Fermi energy shift (Ry) =    -8.2908E-04     2.0680E-25

      iter #   3 total cpu time :  6016.9 secs   av.it.:  12.7
      thresh= 1.740E-05 alpha_mix =  0.700 |ddv_scf|^2 =  5.583E-09

     Pert. #  1: Fermi energy shift (Ry) =    -9.5373E-04     1.0340E-25

      iter #   4 total cpu time :  6096.7 secs   av.it.:  12.7
      thresh= 7.472E-06 alpha_mix =  0.700 |ddv_scf|^2 =  3.246E-12

     Pert. #  1: Fermi energy shift (Ry) =    -9.3797E-04    -3.2312E-27

      iter #   5 total cpu time :  6181.6 secs   av.it.:  13.6
      thresh= 1.802E-07 alpha_mix =  0.700 |ddv_scf|^2 =  4.750E-14

     Pert. #  1: Fermi energy shift (Ry) =    -9.4308E-04     1.6156E-27

      iter #   6 total cpu time :  6269.6 secs   av.it.:  14.2
      thresh= 2.179E-08 alpha_mix =  0.700 |ddv_scf|^2 =  3.563E-15

     End of self-consistent calculation

     Convergence has been achieved 


     Representation #  13 mode #  13

     Self-consistent Calculation

     Pert. #  1: Fermi energy shift (Ry) =    -2.4415E-06     0.0000E+00

      iter #   1 total cpu time :  6321.2 secs   av.it.:   5.1
      thresh= 1.000E-02 alpha_mix =  0.700 |ddv_scf|^2 =  4.553E-08

     Pert. #  1: Fermi energy shift (Ry) =     3.3510E-06     0.0000E+00

      iter #   2 total cpu time :  6404.2 secs   av.it.:  13.3
      thresh= 2.134E-05 alpha_mix =  0.700 |ddv_scf|^2 =  8.608E-09

     Pert. #  1: Fermi energy shift (Ry) =     4.5333E-06     0.0000E+00

      iter #   3 total cpu time :  6484.7 secs   av.it.:  12.9
      thresh= 9.278E-06 alpha_mix =  0.700 |ddv_scf|^2 =  4.612E-10

     Pert. #  1: Fermi energy shift (Ry) =     6.0281E-06     0.0000E+00

      iter #   4 total cpu time :  6564.3 secs   av.it.:  12.7
      thresh= 2.148E-06 alpha_mix =  0.700 |ddv_scf|^2 =  3.908E-12

     Pert. #  1: Fermi energy shift (Ry) =     6.3608E-06     0.0000E+00

      iter #   5 total cpu time :  6644.7 secs   av.it.:  12.8
      thresh= 1.977E-07 alpha_mix =  0.700 |ddv_scf|^2 =  3.614E-14

     Pert. #  1: Fermi energy shift (Ry) =     6.4467E-06     0.0000E+00

      iter #   6 total cpu time :  6730.3 secs   av.it.:  13.8
      thresh= 1.901E-08 alpha_mix =  0.700 |ddv_scf|^2 =  8.385E-16

     End of self-consistent calculation

     Convergence has been achieved 


     Representation #  14 mode #  14

     Self-consistent Calculation

     Pert. #  1: Fermi energy shift (Ry) =    -3.0332E-03     2.1176E-22

      iter #   1 total cpu time :  6779.4 secs   av.it.:   4.7
      thresh= 1.000E-02 alpha_mix =  0.700 |ddv_scf|^2 =  7.194E-08

     Pert. #  1: Fermi energy shift (Ry) =     5.4693E-03     4.1359E-25

      iter #   2 total cpu time :  6859.4 secs   av.it.:  12.8
      thresh= 2.682E-05 alpha_mix =  0.700 |ddv_scf|^2 =  1.041E-08

     Pert. #  1: Fermi energy shift (Ry) =     1.0532E-03     2.5849E-26

      iter #   3 total cpu time :  6941.6 secs   av.it.:  13.2
      thresh= 1.020E-05 alpha_mix =  0.700 |ddv_scf|^2 =  1.645E-09

     Pert. #  1: Fermi energy shift (Ry) =     2.2371E-03     1.2925E-26

      iter #   4 total cpu time :  7022.1 secs   av.it.:  12.8
      thresh= 4.055E-06 alpha_mix =  0.700 |ddv_scf|^2 =  1.556E-11

     Pert. #  1: Fermi energy shift (Ry) =     2.0673E-03     6.4623E-27

      iter #   5 total cpu time :  7105.4 secs   av.it.:  13.4
      thresh= 3.945E-07 alpha_mix =  0.700 |ddv_scf|^2 =  1.223E-12

     Pert. #  1: Fermi energy shift (Ry) =     2.1031E-03     3.2312E-27

      iter #   6 total cpu time :  7186.8 secs   av.it.:  13.0
      thresh= 1.106E-07 alpha_mix =  0.700 |ddv_scf|^2 =  3.592E-15

     End of self-consistent calculation

     Convergence has been achieved 


     Representation #  15 mode #  15

     Self-consistent Calculation

     Pert. #  1: Fermi energy shift (Ry) =    -5.8798E-05     1.0588E-22

      iter #   1 total cpu time :  7236.1 secs   av.it.:   4.7
      thresh= 1.000E-02 alpha_mix =  0.700 |ddv_scf|^2 =  4.023E-08

     Pert. #  1: Fermi energy shift (Ry) =    -8.8050E-05    -2.0680E-25

      iter #   2 total cpu time :  7318.6 secs   av.it.:  13.2
      thresh= 2.006E-05 alpha_mix =  0.700 |ddv_scf|^2 =  6.433E-09

     Pert. #  1: Fermi energy shift (Ry) =    -9.1139E-05     5.1699E-26

      iter #   3 total cpu time :  7399.4 secs   av.it.:  12.9
      thresh= 8.021E-06 alpha_mix =  0.700 |ddv_scf|^2 =  4.462E-10

     Pert. #  1: Fermi energy shift (Ry) =    -9.4481E-05     2.5849E-26

      iter #   4 total cpu time :  7479.3 secs   av.it.:  12.7
      thresh= 2.112E-06 alpha_mix =  0.700 |ddv_scf|^2 =  6.608E-12

     Pert. #  1: Fermi energy shift (Ry) =    -9.4668E-05     3.2312E-27

      iter #   5 total cpu time :  7559.2 secs   av.it.:  12.8
      thresh= 2.571E-07 alpha_mix =  0.700 |ddv_scf|^2 =  2.354E-14

     Pert. #  1: Fermi energy shift (Ry) =    -9.4669E-05     1.6156E-27

      iter #   6 total cpu time :  7643.8 secs   av.it.:  13.6
      thresh= 1.534E-08 alpha_mix =  0.700 |ddv_scf|^2 =  6.112E-16

     End of self-consistent calculation

     Convergence has been achieved 


     Representation #  16 mode #  16

     Self-consistent Calculation

     Pert. #  1: Fermi energy shift (Ry) =    -3.0081E-04     0.0000E+00

      iter #   1 total cpu time :  7695.3 secs   av.it.:   5.1
      thresh= 1.000E-02 alpha_mix =  0.700 |ddv_scf|^2 =  8.312E-08

     Pert. #  1: Fermi energy shift (Ry) =    -2.2535E-04     0.0000E+00

      iter #   2 total cpu time :  7775.9 secs   av.it.:  12.9
      thresh= 2.883E-05 alpha_mix =  0.700 |ddv_scf|^2 =  1.200E-08

     Pert. #  1: Fermi energy shift (Ry) =    -2.2539E-04     0.0000E+00

      iter #   3 total cpu time :  7856.5 secs   av.it.:  12.9
      thresh= 1.095E-05 alpha_mix =  0.700 |ddv_scf|^2 =  1.729E-09

     Pert. #  1: Fermi energy shift (Ry) =    -2.1369E-04     0.0000E+00

      iter #   4 total cpu time :  7935.5 secs   av.it.:  12.6
      thresh= 4.158E-06 alpha_mix =  0.700 |ddv_scf|^2 =  3.516E-12

     Pert. #  1: Fermi energy shift (Ry) =    -2.1457E-04     0.0000E+00

      iter #   5 total cpu time :  8017.9 secs   av.it.:  13.2
      thresh= 1.875E-07 alpha_mix =  0.700 |ddv_scf|^2 =  3.649E-14

     Pert. #  1: Fermi energy shift (Ry) =    -2.1400E-04     0.0000E+00

      iter #   6 total cpu time :  8104.1 secs   av.it.:  13.9
      thresh= 1.910E-08 alpha_mix =  0.700 |ddv_scf|^2 =  9.416E-16

     End of self-consistent calculation

     Convergence has been achieved 


     Representation #  17 mode #  17

     Self-consistent Calculation

     Pert. #  1: Fermi energy shift (Ry) =     3.4780E-03     2.1176E-22

      iter #   1 total cpu time :  8153.1 secs   av.it.:   4.7
      thresh= 1.000E-02 alpha_mix =  0.700 |ddv_scf|^2 =  6.461E-08

     Pert. #  1: Fermi energy shift (Ry) =    -5.0381E-03     4.1359E-25

      iter #   2 total cpu time :  8233.9 secs   av.it.:  12.8
      thresh= 2.542E-05 alpha_mix =  0.700 |ddv_scf|^2 =  9.757E-09

     Pert. #  1: Fermi energy shift (Ry) =    -7.2533E-04     2.5849E-26

      iter #   3 total cpu time :  8316.3 secs   av.it.:  13.2
      thresh= 9.878E-06 alpha_mix =  0.700 |ddv_scf|^2 =  1.390E-09

     Pert. #  1: Fermi energy shift (Ry) =    -1.7832E-03     2.5849E-26

      iter #   4 total cpu time :  8397.6 secs   av.it.:  12.8
      thresh= 3.728E-06 alpha_mix =  0.700 |ddv_scf|^2 =  1.530E-11

     Pert. #  1: Fermi energy shift (Ry) =    -1.6150E-03     6.4623E-27

      iter #   5 total cpu time :  8481.2 secs   av.it.:  13.4
      thresh= 3.911E-07 alpha_mix =  0.700 |ddv_scf|^2 =  1.211E-12

     Pert. #  1: Fermi energy shift (Ry) =    -1.6504E-03     3.2312E-27

      iter #   6 total cpu time :  8562.7 secs   av.it.:  13.0
      thresh= 1.101E-07 alpha_mix =  0.700 |ddv_scf|^2 =  3.566E-15

     End of self-consistent calculation

     Convergence has been achieved 


     Representation #  18 mode #  18

     Self-consistent Calculation

     Pert. #  1: Fermi energy shift (Ry) =    -6.0690E-05     1.0588E-22

      iter #   1 total cpu time :  8612.0 secs   av.it.:   4.7
      thresh= 1.000E-02 alpha_mix =  0.700 |ddv_scf|^2 =  4.272E-08

     Pert. #  1: Fermi energy shift (Ry) =    -3.5417E-05    -5.1699E-26

      iter #   2 total cpu time :  8694.3 secs   av.it.:  13.2
      thresh= 2.067E-05 alpha_mix =  0.700 |ddv_scf|^2 =  6.655E-09

     Pert. #  1: Fermi energy shift (Ry) =    -3.6513E-05     2.0680E-25

      iter #   3 total cpu time :  8775.3 secs   av.it.:  12.9
      thresh= 8.158E-06 alpha_mix =  0.700 |ddv_scf|^2 =  5.274E-10

     Pert. #  1: Fermi energy shift (Ry) =    -3.4045E-05     2.5849E-26

      iter #   4 total cpu time :  8855.0 secs   av.it.:  12.7
      thresh= 2.297E-06 alpha_mix =  0.700 |ddv_scf|^2 =  6.746E-12

     Pert. #  1: Fermi energy shift (Ry) =    -3.4456E-05     1.6156E-27

      iter #   5 total cpu time :  8935.5 secs   av.it.:  12.8
      thresh= 2.597E-07 alpha_mix =  0.700 |ddv_scf|^2 =  2.314E-14

     Pert. #  1: Fermi energy shift (Ry) =    -3.4384E-05     8.0779E-28

      iter #   6 total cpu time :  9020.5 secs   av.it.:  13.7
      thresh= 1.521E-08 alpha_mix =  0.700 |ddv_scf|^2 =  6.070E-16

     End of self-consistent calculation

     Convergence has been achieved 


     Representation #  19 mode #  19

     Self-consistent Calculation

     Pert. #  1: Fermi energy shift (Ry) =     7.9210E-07     0.0000E+00

      iter #   1 total cpu time :  9069.9 secs   av.it.:   4.7
      thresh= 1.000E-02 alpha_mix =  0.700 |ddv_scf|^2 =  4.018E-08

     Pert. #  1: Fermi energy shift (Ry) =    -7.7663E-06     0.0000E+00

      iter #   2 total cpu time :  9152.5 secs   av.it.:  13.2
      thresh= 2.004E-05 alpha_mix =  0.700 |ddv_scf|^2 =  6.425E-09

     Pert. #  1: Fermi energy shift (Ry) =    -1.0128E-05     0.0000E+00

      iter #   3 total cpu time :  9233.5 secs   av.it.:  12.9
      thresh= 8.016E-06 alpha_mix =  0.700 |ddv_scf|^2 =  4.451E-10

     Pert. #  1: Fermi energy shift (Ry) =    -1.1769E-05     0.0000E+00

      iter #   4 total cpu time :  9313.4 secs   av.it.:  12.7
      thresh= 2.110E-06 alpha_mix =  0.700 |ddv_scf|^2 =  6.594E-12

     Pert. #  1: Fermi energy shift (Ry) =    -1.2147E-05     0.0000E+00

      iter #   5 total cpu time :  9393.5 secs   av.it.:  12.8
      thresh= 2.568E-07 alpha_mix =  0.700 |ddv_scf|^2 =  2.350E-14

     Pert. #  1: Fermi energy shift (Ry) =    -1.2180E-05     0.0000E+00

      iter #   6 total cpu time :  9478.4 secs   av.it.:  13.6
      thresh= 1.533E-08 alpha_mix =  0.700 |ddv_scf|^2 =  6.095E-16

     End of self-consistent calculation

     Convergence has been achieved 


     Representation #  20 mode #  20

     Self-consistent Calculation

     Pert. #  1: Fermi energy shift (Ry) =    -6.8475E-05    -1.6941E-21

      iter #   1 total cpu time :  9530.0 secs   av.it.:   5.1
      thresh= 1.000E-02 alpha_mix =  0.700 |ddv_scf|^2 =  7.412E-08

     Pert. #  1: Fermi energy shift (Ry) =    -6.2955E-05     2.5849E-26

      iter #   2 total cpu time :  9611.2 secs   av.it.:  13.0
      thresh= 2.723E-05 alpha_mix =  0.700 |ddv_scf|^2 =  1.116E-08

     Pert. #  1: Fermi energy shift (Ry) =    -6.8901E-05    -4.1359E-25

      iter #   3 total cpu time :  9691.9 secs   av.it.:  12.9
      thresh= 1.056E-05 alpha_mix =  0.700 |ddv_scf|^2 =  1.442E-09

     Pert. #  1: Fermi energy shift (Ry) =    -6.8644E-05     2.5849E-26

      iter #   4 total cpu time :  9770.8 secs   av.it.:  12.6
      thresh= 3.798E-06 alpha_mix =  0.700 |ddv_scf|^2 =  3.560E-12

     Pert. #  1: Fermi energy shift (Ry) =    -6.9143E-05     6.4623E-27

      iter #   5 total cpu time :  9852.8 secs   av.it.:  13.1
      thresh= 1.887E-07 alpha_mix =  0.700 |ddv_scf|^2 =  3.620E-14

     Pert. #  1: Fermi energy shift (Ry) =    -6.9031E-05     6.4623E-27

      iter #   6 total cpu time :  9939.0 secs   av.it.:  13.9
      thresh= 1.903E-08 alpha_mix =  0.700 |ddv_scf|^2 =  8.766E-16

     End of self-consistent calculation

     Convergence has been achieved 


     Representation #  21 mode #  21

     Self-consistent Calculation

     Pert. #  1: Fermi energy shift (Ry) =    -3.1374E-03     2.6470E-23

      iter #   1 total cpu time :  9988.2 secs   av.it.:   4.7
      thresh= 1.000E-02 alpha_mix =  0.700 |ddv_scf|^2 =  4.675E-08

     Pert. #  1: Fermi energy shift (Ry) =     5.3151E-03    -1.0340E-25

      iter #   2 total cpu time : 10070.4 secs   av.it.:  13.1
      thresh= 2.162E-05 alpha_mix =  0.700 |ddv_scf|^2 =  8.136E-09

     Pert. #  1: Fermi energy shift (Ry) =     1.3843E-03    -6.4623E-27

      iter #   3 total cpu time : 10152.8 secs   av.it.:  13.2
      thresh= 9.020E-06 alpha_mix =  0.700 |ddv_scf|^2 =  7.244E-10

     Pert. #  1: Fermi energy shift (Ry) =     2.0636E-03     1.6156E-27

      iter #   4 total cpu time : 10233.5 secs   av.it.:  12.8
      thresh= 2.692E-06 alpha_mix =  0.700 |ddv_scf|^2 =  1.411E-11

     Pert. #  1: Fermi energy shift (Ry) =     1.9002E-03     1.6156E-27

      iter #   5 total cpu time : 10316.8 secs   av.it.:  13.3
      thresh= 3.756E-07 alpha_mix =  0.700 |ddv_scf|^2 =  1.186E-12

     Pert. #  1: Fermi energy shift (Ry) =     1.9349E-03    -2.0195E-28

      iter #   6 total cpu time : 10398.3 secs   av.it.:  13.0
      thresh= 1.089E-07 alpha_mix =  0.700 |ddv_scf|^2 =  3.539E-15

     End of self-consistent calculation

     Convergence has been achieved 


     Representation #  22 mode #  22

     Self-consistent Calculation

     Pert. #  1: Fermi energy shift (Ry) =    -3.5937E-04     0.0000E+00

      iter #   1 total cpu time : 10447.7 secs   av.it.:   4.7
      thresh= 1.000E-02 alpha_mix =  0.700 |ddv_scf|^2 =  6.739E-08

     Pert. #  1: Fermi energy shift (Ry) =    -3.1988E-04     0.0000E+00

      iter #   2 total cpu time : 10528.3 secs   av.it.:  12.8
      thresh= 2.596E-05 alpha_mix =  0.700 |ddv_scf|^2 =  8.867E-09

     Pert. #  1: Fermi energy shift (Ry) =    -3.2682E-04     0.0000E+00

      iter #   3 total cpu time : 10609.3 secs   av.it.:  12.9
      thresh= 9.417E-06 alpha_mix =  0.700 |ddv_scf|^2 =  1.284E-09

     Pert. #  1: Fermi energy shift (Ry) =    -3.1997E-04     0.0000E+00

      iter #   4 total cpu time : 10688.7 secs   av.it.:  12.6
      thresh= 3.583E-06 alpha_mix =  0.700 |ddv_scf|^2 =  7.018E-12

     Pert. #  1: Fermi energy shift (Ry) =    -3.2120E-04     0.0000E+00

      iter #   5 total cpu time : 10770.8 secs   av.it.:  13.1
      thresh= 2.649E-07 alpha_mix =  0.700 |ddv_scf|^2 =  2.297E-14

     Pert. #  1: Fermi energy shift (Ry) =    -3.2058E-04     0.0000E+00

      iter #   6 total cpu time : 10856.2 secs   av.it.:  13.8
      thresh= 1.516E-08 alpha_mix =  0.700 |ddv_scf|^2 =  6.693E-16

     End of self-consistent calculation

     Convergence has been achieved 


     Representation #  23 mode #  23

     Self-consistent Calculation

     Pert. #  1: Fermi energy shift (Ry) =     6.8336E-04    -1.6941E-21

      iter #   1 total cpu time : 10907.9 secs   av.it.:   5.1
      thresh= 1.000E-02 alpha_mix =  0.700 |ddv_scf|^2 =  5.794E-08

     Pert. #  1: Fermi energy shift (Ry) =     7.1259E-04     2.0680E-25

      iter #   2 total cpu time : 10990.1 secs   av.it.:  13.2
      thresh= 2.407E-05 alpha_mix =  0.700 |ddv_scf|^2 =  9.725E-09

     Pert. #  1: Fermi energy shift (Ry) =     7.5595E-04    -4.1359E-25

      iter #   3 total cpu time : 11071.0 secs   av.it.:  12.9
      thresh= 9.861E-06 alpha_mix =  0.700 |ddv_scf|^2 =  8.917E-10

     Pert. #  1: Fermi energy shift (Ry) =     7.6047E-04     1.0340E-25

      iter #   4 total cpu time : 11150.0 secs   av.it.:  12.6
      thresh= 2.986E-06 alpha_mix =  0.700 |ddv_scf|^2 =  3.733E-12

     Pert. #  1: Fermi energy shift (Ry) =     7.6290E-04     1.2925E-26

      iter #   5 total cpu time : 11231.3 secs   av.it.:  13.0
      thresh= 1.932E-07 alpha_mix =  0.700 |ddv_scf|^2 =  3.618E-14

     Pert. #  1: Fermi energy shift (Ry) =     7.6154E-04     6.4623E-27

      iter #   6 total cpu time : 11317.7 secs   av.it.:  13.9
      thresh= 1.902E-08 alpha_mix =  0.700 |ddv_scf|^2 =  9.348E-16

     End of self-consistent calculation

     Convergence has been achieved 


     Representation #  24 mode #  24

     Self-consistent Calculation

     Pert. #  1: Fermi energy shift (Ry) =     2.9209E-03     2.6470E-23

      iter #   1 total cpu time : 11367.0 secs   av.it.:   4.7
      thresh= 1.000E-02 alpha_mix =  0.700 |ddv_scf|^2 =  7.457E-08

     Pert. #  1: Fermi energy shift (Ry) =    -5.5155E-03     5.1699E-26

      iter #   2 total cpu time : 11446.8 secs   av.it.:  12.7
      thresh= 2.731E-05 alpha_mix =  0.700 |ddv_scf|^2 =  1.062E-08

     Pert. #  1: Fermi energy shift (Ry) =    -1.0569E-03    -6.4623E-27

      iter #   3 total cpu time : 11529.0 secs   av.it.:  13.2
      thresh= 1.030E-05 alpha_mix =  0.700 |ddv_scf|^2 =  1.740E-09

     Pert. #  1: Fermi energy shift (Ry) =    -2.2851E-03     6.4623E-27

      iter #   4 total cpu time : 11609.5 secs   av.it.:  12.8
      thresh= 4.171E-06 alpha_mix =  0.700 |ddv_scf|^2 =  1.557E-11

     Pert. #  1: Fermi energy shift (Ry) =    -2.1153E-03     1.6156E-27

      iter #   5 total cpu time : 11692.8 secs   av.it.:  13.4
      thresh= 3.946E-07 alpha_mix =  0.700 |ddv_scf|^2 =  1.221E-12

     Pert. #  1: Fermi energy shift (Ry) =    -2.1512E-03    -1.0097E-28

      iter #   6 total cpu time : 11774.2 secs   av.it.:  13.0
      thresh= 1.105E-07 alpha_mix =  0.700 |ddv_scf|^2 =  3.656E-15

     End of self-consistent calculation

     Convergence has been achieved 

     Number of q in the star =    1
     List of q in the star:
          1   0.000000000   0.000000000   0.000000000

     Diagonalizing the dynamical matrix

     q = (    0.000000000   0.000000000   0.000000000 ) 

 **************************************************************************
     freq (    1) =    -118.314422 [THz] =   -3946.544298 [cm-1]
     freq (    2) =    -116.639851 [THz] =   -3890.686621 [cm-1]
     freq (    3) =    -114.585927 [THz] =   -3822.175115 [cm-1]
     freq (    4) =    -108.245390 [THz] =   -3610.677553 [cm-1]
     freq (    5) =    -104.509193 [THz] =   -3486.051425 [cm-1]
     freq (    6) =    -102.958117 [THz] =   -3434.313108 [cm-1]
     freq (    7) =     -88.555799 [THz] =   -2953.903492 [cm-1]
     freq (    8) =     -80.196151 [THz] =   -2675.055650 [cm-1]
     freq (    9) =     -79.230866 [THz] =   -2642.857198 [cm-1]
     freq (   10) =     -75.049003 [THz] =   -2503.365295 [cm-1]
     freq (   11) =     -73.460948 [THz] =   -2450.393452 [cm-1]
     freq (   12) =     -71.615852 [THz] =   -2388.847704 [cm-1]
     freq (   13) =     -67.675590 [THz] =   -2257.414700 [cm-1]
     freq (   14) =     -66.770003 [THz] =   -2227.207566 [cm-1]
     freq (   15) =     -64.488026 [THz] =   -2151.088993 [cm-1]
     freq (   16) =     -63.595537 [THz] =   -2121.318785 [cm-1]
     freq (   17) =     -62.444708 [THz] =   -2082.931258 [cm-1]
     freq (   18) =     -59.289771 [THz] =   -1977.693885 [cm-1]
     freq (   19) =     -53.840637 [THz] =   -1795.930348 [cm-1]
     freq (   20) =     -49.058135 [THz] =   -1636.403234 [cm-1]
     freq (   21) =     -42.165855 [THz] =   -1406.501534 [cm-1]
     freq (   22) =     -27.797056 [THz] =    -927.209991 [cm-1]
     freq (   23) =      34.916464 [THz] =    1164.687886 [cm-1]
     freq (   24) =      58.137995 [THz] =    1939.274764 [cm-1]
 **************************************************************************

     Mode symmetry, C_1 (1)     point group:

     freq (   1-   1) =      -3946.5  [cm-1]   --> A               I+R
     freq (   2-   2) =      -3890.7  [cm-1]   --> A               I+R
     freq (   3-   3) =      -3822.2  [cm-1]   --> A               I+R
     freq (   4-   4) =      -3610.7  [cm-1]   --> A               I+R
     freq (   5-   5) =      -3486.1  [cm-1]   --> A               I+R
     freq (   6-   6) =      -3434.3  [cm-1]   --> A               I+R
     freq (   7-   7) =      -2953.9  [cm-1]   --> A               I+R
     freq (   8-   8) =      -2675.1  [cm-1]   --> A               I+R
     freq (   9-   9) =      -2642.9  [cm-1]   --> A               I+R
     freq (  10-  10) =      -2503.4  [cm-1]   --> A               I+R
     freq (  11-  11) =      -2450.4  [cm-1]   --> A               I+R
     freq (  12-  12) =      -2388.8  [cm-1]   --> A               I+R
     freq (  13-  13) =      -2257.4  [cm-1]   --> A               I+R
     freq (  14-  14) =      -2227.2  [cm-1]   --> A               I+R
     freq (  15-  15) =      -2151.1  [cm-1]   --> A               I+R
     freq (  16-  16) =      -2121.3  [cm-1]   --> A               I+R
     freq (  17-  17) =      -2082.9  [cm-1]   --> A               I+R
     freq (  18-  18) =      -1977.7  [cm-1]   --> A               I+R
     freq (  19-  19) =      -1795.9  [cm-1]   --> A               I+R
     freq (  20-  20) =      -1636.4  [cm-1]   --> A               I+R
     freq (  21-  21) =      -1406.5  [cm-1]   --> A               I+R
     freq (  22-  22) =       -927.2  [cm-1]   --> A               I+R
     freq (  23-  23) =       1164.7  [cm-1]   --> A               I+R
     freq (  24-  24) =       1939.3  [cm-1]   --> A               I+R

     Gaussian Broadening:   0.005 Ry, ngauss=   0
     DOS = 13.836557 states/spin/Ry/Unit Cell at Ef= 13.141972 eV
     double delta at Ef =**********
     lambda(    1)= -0.0174   gamma= 3224.13 GHz
     lambda(    2)= -0.0444   gamma= 7972.84 GHz
     lambda(    3)= -0.0393   gamma= 6819.72 GHz
     lambda(    4)= -0.0393   gamma= 6080.63 GHz
     lambda(    5)= -0.0233   gamma= 3362.23 GHz
     lambda(    6)= -0.0105   gamma= 1474.39 GHz
     lambda(    7)= -0.0288   gamma= 2980.44 GHz
     lambda(    8)= -0.0537   gamma= 4564.76 GHz
     lambda(    9)= -0.1079   gamma= 8952.17 GHz
     lambda(   10)= -0.0709   gamma= 5275.47 GHz
     lambda(   11)= -0.0630   gamma= 4492.70 GHz
     lambda(   12)= -0.0718   gamma= 4868.73 GHz
     lambda(   13)= -0.1011   gamma= 6115.39 GHz
     lambda(   14)= -0.1366   gamma= 8044.09 GHz
     lambda(   15)= -0.0728   gamma= 4001.26 GHz
     lambda(   16)= -0.0356   gamma= 1902.67 GHz
     lambda(   17)= -0.0451   gamma= 2321.14 GHz
     lambda(   18)= -0.0162   gamma=  750.37 GHz
     lambda(   19)= -0.0049   gamma=  186.42 GHz
     lambda(   20)= -0.0136   gamma=  433.79 GHz
     lambda(   21)= -0.0057   gamma=  134.39 GHz
     lambda(   22)= -0.1617   gamma= 1650.58 GHz
     lambda(   23)=  0.0198   gamma=  319.31 GHz
     lambda(   24)=  0.0036   gamma=  160.01 GHz

     Gaussian Broadening:   0.010 Ry, ngauss=   0
     DOS = 12.895120 states/spin/Ry/Unit Cell at Ef= 13.136476 eV
     double delta at Ef =**********
     lambda(    1)= -0.0101   gamma= 1734.40 GHz
     lambda(    2)= -0.0223   gamma= 3741.82 GHz
     lambda(    3)= -0.0206   gamma= 3333.27 GHz
     lambda(    4)= -0.0188   gamma= 2717.62 GHz
     lambda(    5)= -0.0105   gamma= 1409.68 GHz
     lambda(    6)= -0.0056   gamma=  727.37 GHz
     lambda(    7)= -0.0154   gamma= 1485.64 GHz
     lambda(    8)= -0.0290   gamma= 2293.62 GHz
     lambda(    9)= -0.0568   gamma= 4388.84 GHz
     lambda(   10)= -0.0389   gamma= 2698.56 GHz
     lambda(   11)= -0.0347   gamma= 2304.06 GHz
     lambda(   12)= -0.0340   gamma= 2148.60 GHz
     lambda(   13)= -0.0478   gamma= 2693.11 GHz
     lambda(   14)= -0.0637   gamma= 3495.16 GHz
     lambda(   15)= -0.0336   gamma= 1721.26 GHz
     lambda(   16)= -0.0187   gamma=  932.75 GHz
     lambda(   17)= -0.0207   gamma=  995.85 GHz
     lambda(   18)= -0.0095   gamma=  412.91 GHz
     lambda(   19)= -0.0029   gamma=  104.22 GHz
     lambda(   20)= -0.0069   gamma=  203.86 GHz
     lambda(   21)= -0.0030   gamma=   66.48 GHz
     lambda(   22)= -0.0844   gamma=  803.13 GHz
     lambda(   23)=  0.0107   gamma=  160.47 GHz
     lambda(   24)=  0.0020   gamma=   82.66 GHz

     Gaussian Broadening:   0.015 Ry, ngauss=   0
     DOS = 11.762288 states/spin/Ry/Unit Cell at Ef= 13.134502 eV
     double delta at Ef =656.792223
     lambda(    1)= -0.0084   gamma= 1316.90 GHz
     lambda(    2)= -0.0162   gamma= 2475.68 GHz
     lambda(    3)= -0.0148   gamma= 2175.47 GHz
     lambda(    4)= -0.0139   gamma= 1833.74 GHz
     lambda(    5)= -0.0073   gamma=  890.32 GHz
     lambda(    6)= -0.0046   gamma=  542.94 GHz
     lambda(    7)= -0.0117   gamma= 1028.91 GHz
     lambda(    8)= -0.0226   gamma= 1632.30 GHz
     lambda(    9)= -0.0412   gamma= 2904.04 GHz
     lambda(   10)= -0.0285   gamma= 1800.97 GHz
     lambda(   11)= -0.0253   gamma= 1533.56 GHz
     lambda(   12)= -0.0253   gamma= 1456.39 GHz
     lambda(   13)= -0.0347   gamma= 1784.28 GHz
     lambda(   14)= -0.0459   gamma= 2297.12 GHz
     lambda(   15)= -0.0243   gamma= 1134.11 GHz
     lambda(   16)= -0.0144   gamma=  653.62 GHz
     lambda(   17)= -0.0152   gamma=  666.98 GHz
     lambda(   18)= -0.0077   gamma=  304.42 GHz
     lambda(   19)= -0.0027   gamma=   88.03 GHz
     lambda(   20)= -0.0052   gamma=  141.75 GHz
     lambda(   21)= -0.0022   gamma=   43.86 GHz
     lambda(   22)= -0.0602   gamma=  522.71 GHz
     lambda(   23)=  0.0084   gamma=  115.64 GHz
     lambda(   24)=  0.0015   gamma=   57.42 GHz

     Gaussian Broadening:   0.020 Ry, ngauss=   0
     DOS = 10.991678 states/spin/Ry/Unit Cell at Ef= 13.133048 eV
     double delta at Ef =489.007488
     lambda(    1)= -0.0075   gamma= 1106.92 GHz
     lambda(    2)= -0.0131   gamma= 1864.53 GHz
     lambda(    3)= -0.0116   gamma= 1592.97 GHz
     lambda(    4)= -0.0117   gamma= 1434.79 GHz
     lambda(    5)= -0.0057   gamma=  658.83 GHz
     lambda(    6)= -0.0041   gamma=  460.84 GHz
     lambda(    7)= -0.0097   gamma=  796.24 GHz
     lambda(    8)= -0.0193   gamma= 1304.14 GHz
     lambda(    9)= -0.0326   gamma= 2145.07 GHz
     lambda(   10)= -0.0231   gamma= 1364.38 GHz
     lambda(   11)= -0.0204   gamma= 1157.30 GHz
     lambda(   12)= -0.0213   gamma= 1146.53 GHz
     lambda(   13)= -0.0286   gamma= 1372.54 GHz
     lambda(   14)= -0.0377   gamma= 1766.47 GHz
     lambda(   15)= -0.0199   gamma=  866.93 GHz
     lambda(   16)= -0.0122   gamma=  516.96 GHz
     lambda(   17)= -0.0128   gamma=  522.10 GHz
     lambda(   18)= -0.0068   gamma=  249.58 GHz
     lambda(   19)= -0.0026   gamma=   80.56 GHz
     lambda(   20)= -0.0045   gamma=  112.56 GHz
     lambda(   21)= -0.0017   gamma=   32.49 GHz
     lambda(   22)= -0.0468   gamma=  379.89 GHz
     lambda(   23)=  0.0073   gamma=   93.89 GHz
     lambda(   24)=  0.0013   gamma=   45.55 GHz

     Gaussian Broadening:   0.025 Ry, ngauss=   0
     DOS = 10.446589 states/spin/Ry/Unit Cell at Ef= 13.131491 eV
     double delta at Ef =392.761104
     lambda(    1)= -0.0069   gamma=  969.47 GHz
     lambda(    2)= -0.0110   gamma= 1495.55 GHz
     lambda(    3)= -0.0095   gamma= 1238.68 GHz
     lambda(    4)= -0.0102   gamma= 1196.91 GHz
     lambda(    5)= -0.0048   gamma=  523.80 GHz
     lambda(    6)= -0.0039   gamma=  409.94 GHz
     lambda(    7)= -0.0083   gamma=  650.15 GHz
     lambda(    8)= -0.0170   gamma= 1093.22 GHz
     lambda(    9)= -0.0268   gamma= 1677.81 GHz
     lambda(   10)= -0.0196   gamma= 1103.92 GHz
     lambda(   11)= -0.0173   gamma=  932.12 GHz
     lambda(   12)= -0.0188   gamma=  963.20 GHz
     lambda(   13)= -0.0247   gamma= 1128.90 GHz
     lambda(   14)= -0.0328   gamma= 1457.43 GHz
     lambda(   15)= -0.0170   gamma=  706.23 GHz
     lambda(   16)= -0.0108   gamma=  434.07 GHz
     lambda(   17)= -0.0112   gamma=  436.65 GHz
     lambda(   18)= -0.0062   gamma=  215.91 GHz
     lambda(   19)= -0.0026   gamma=   75.32 GHz
     lambda(   20)= -0.0039   gamma=   94.44 GHz
     lambda(   21)= -0.0014   gamma=   25.57 GHz
     lambda(   22)= -0.0380   gamma=  293.14 GHz
     lambda(   23)=  0.0066   gamma=   80.81 GHz
     lambda(   24)=  0.0011   gamma=   38.76 GHz

     Gaussian Broadening:   0.030 Ry, ngauss=   0
     DOS =  9.989852 states/spin/Ry/Unit Cell at Ef= 13.130013 eV
     double delta at Ef =329.572839
     lambda(    1)= -0.0065   gamma=  866.28 GHz
     lambda(    2)= -0.0096   gamma= 1245.14 GHz
     lambda(    3)= -0.0080   gamma= 1000.84 GHz
     lambda(    4)= -0.0092   gamma= 1032.60 GHz
     lambda(    5)= -0.0042   gamma=  433.85 GHz
     lambda(    6)= -0.0037   gamma=  371.96 GHz
     lambda(    7)= -0.0073   gamma=  548.64 GHz
     lambda(    8)= -0.0154   gamma=  942.15 GHz
     lambda(    9)= -0.0227   gamma= 1361.60 GHz
     lambda(   10)= -0.0173   gamma=  927.14 GHz
     lambda(   11)= -0.0151   gamma=  779.53 GHz
     lambda(   12)= -0.0171   gamma=  836.62 GHz
     lambda(   13)= -0.0220   gamma=  962.86 GHz
     lambda(   14)= -0.0294   gamma= 1248.31 GHz
     lambda(   15)= -0.0150   gamma=  595.69 GHz
     lambda(   16)= -0.0098   gamma=  376.37 GHz
     lambda(   17)= -0.0102   gamma=  377.88 GHz
     lambda(   18)= -0.0057   gamma=  191.99 GHz
     lambda(   19)= -0.0026   gamma=   70.70 GHz
     lambda(   20)= -0.0036   gamma=   81.64 GHz
     lambda(   21)= -0.0012   gamma=   20.91 GHz
     lambda(   22)= -0.0319   gamma=  235.17 GHz
     lambda(   23)=  0.0062   gamma=   71.70 GHz
     lambda(   24)=  0.0011   gamma=   34.13 GHz

     Gaussian Broadening:   0.035 Ry, ngauss=   0
     DOS =  9.565337 states/spin/Ry/Unit Cell at Ef= 13.128579 eV
     double delta at Ef =284.735155
     lambda(    1)= -0.0061   gamma=  785.03 GHz
     lambda(    2)= -0.0086   gamma= 1066.00 GHz
     lambda(    3)= -0.0069   gamma=  833.46 GHz
     lambda(    4)= -0.0085   gamma=  912.18 GHz
     lambda(    5)= -0.0037   gamma=  369.79 GHz
     lambda(    6)= -0.0035   gamma=  342.02 GHz
     lambda(    7)= -0.0066   gamma=  474.93 GHz
     lambda(    8)= -0.0141   gamma=  830.14 GHz
     lambda(    9)= -0.0198   gamma= 1137.22 GHz
     lambda(   10)= -0.0155   gamma=  799.70 GHz
     lambda(   11)= -0.0136   gamma=  670.15 GHz
     lambda(   12)= -0.0159   gamma=  743.33 GHz
     lambda(   13)= -0.0201   gamma=  842.74 GHz
     lambda(   14)= -0.0269   gamma= 1096.67 GHz
     lambda(   15)= -0.0136   gamma=  515.65 GHz
     lambda(   16)= -0.0090   gamma=  333.45 GHz
     lambda(   17)= -0.0094   gamma=  334.31 GHz
     lambda(   18)= -0.0054   gamma=  173.75 GHz
     lambda(   19)= -0.0025   gamma=   66.51 GHz
     lambda(   20)= -0.0033   gamma=   72.22 GHz
     lambda(   21)= -0.0011   gamma=   17.62 GHz
     lambda(   22)= -0.0275   gamma=  194.38 GHz
     lambda(   23)=  0.0058   gamma=   64.90 GHz
     lambda(   24)=  0.0010   gamma=   30.64 GHz

     Gaussian Broadening:   0.040 Ry, ngauss=   0
     DOS =  9.176772 states/spin/Ry/Unit Cell at Ef= 13.127233 eV
     double delta at Ef =251.374074
     lambda(    1)= -0.0059   gamma=  719.71 GHz
     lambda(    2)= -0.0078   gamma=  933.91 GHz
     lambda(    3)= -0.0062   gamma=  711.89 GHz
     lambda(    4)= -0.0080   gamma=  821.57 GHz
     lambda(    5)= -0.0034   gamma=  322.19 GHz
     lambda(    6)= -0.0034   gamma=  318.11 GHz
     lambda(    7)= -0.0061   gamma=  419.87 GHz
     lambda(    8)= -0.0132   gamma=  745.18 GHz
     lambda(    9)= -0.0177   gamma=  972.66 GHz
     lambda(   10)= -0.0143   gamma=  704.67 GHz
     lambda(   11)= -0.0125   gamma=  589.23 GHz
     lambda(   12)= -0.0150   gamma=  672.79 GHz
     lambda(   13)= -0.0188   gamma=  753.44 GHz
     lambda(   14)= -0.0252   gamma=  982.78 GHz
     lambda(   15)= -0.0125   gamma=  456.40 GHz
     lambda(   16)= -0.0085   gamma=  300.57 GHz
     lambda(   17)= -0.0088   gamma=  300.74 GHz
     lambda(   18)= -0.0052   gamma=  159.42 GHz
     lambda(   19)= -0.0025   gamma=   62.77 GHz
     lambda(   20)= -0.0031   gamma=   65.12 GHz
     lambda(   21)= -0.0010   gamma=   15.22 GHz
     lambda(   22)= -0.0243   gamma=  164.66 GHz
     lambda(   23)=  0.0056   gamma=   59.68 GHz
     lambda(   24)=  0.0009   gamma=   27.91 GHz

     Gaussian Broadening:   0.045 Ry, ngauss=   0
     DOS =  8.833241 states/spin/Ry/Unit Cell at Ef= 13.126113 eV
     double delta at Ef =225.748624
     lambda(    1)= -0.0056   gamma=  666.09 GHz
     lambda(    2)= -0.0073   gamma=  834.17 GHz
     lambda(    3)= -0.0056   gamma=  621.05 GHz
     lambda(    4)= -0.0076   gamma=  752.25 GHz
     lambda(    5)= -0.0031   gamma=  285.86 GHz
     lambda(    6)= -0.0033   gamma=  298.92 GHz
     lambda(    7)= -0.0057   gamma=  377.60 GHz
     lambda(    8)= -0.0125   gamma=  678.91 GHz
     lambda(    9)= -0.0160   gamma=  848.34 GHz
     lambda(   10)= -0.0133   gamma=  631.76 GHz
     lambda(   11)= -0.0116   gamma=  527.64 GHz
     lambda(   12)= -0.0143   gamma=  618.75 GHz
     lambda(   13)= -0.0178   gamma=  685.96 GHz
     lambda(   14)= -0.0238   gamma=  895.38 GHz
     lambda(   15)= -0.0117   gamma=  412.06 GHz
     lambda(   16)= -0.0081   gamma=  275.01 GHz
     lambda(   17)= -0.0083   gamma=  274.34 GHz
     lambda(   18)= -0.0050   gamma=  148.07 GHz
     lambda(   19)= -0.0024   gamma=   59.46 GHz
     lambda(   20)= -0.0029   gamma=   59.68 GHz
     lambda(   21)= -0.0009   gamma=   13.44 GHz
     lambda(   22)= -0.0218   gamma=  142.41 GHz
     lambda(   23)=  0.0054   gamma=   55.61 GHz
     lambda(   24)=  0.0009   gamma=   25.72 GHz

     Gaussian Broadening:   0.050 Ry, ngauss=   0
     DOS =  8.535531 states/spin/Ry/Unit Cell at Ef= 13.125363 eV
     double delta at Ef =205.614528
     lambda(    1)= -0.0054   gamma=  621.23 GHz
     lambda(    2)= -0.0068   gamma=  757.24 GHz
     lambda(    3)= -0.0052   gamma=  551.33 GHz
     lambda(    4)= -0.0073   gamma=  698.59 GHz
     lambda(    5)= -0.0029   gamma=  257.74 GHz
     lambda(    6)= -0.0033   gamma=  283.58 GHz
     lambda(    7)= -0.0054   gamma=  344.31 GHz
     lambda(    8)= -0.0119   gamma=  625.73 GHz
     lambda(    9)= -0.0147   gamma=  751.88 GHz
     lambda(   10)= -0.0125   gamma=  574.29 GHz
     lambda(   11)= -0.0109   gamma=  479.44 GHz
     lambda(   12)= -0.0138   gamma=  577.04 GHz
     lambda(   13)= -0.0170   gamma=  634.39 GHz
     lambda(   14)= -0.0228   gamma=  827.33 GHz
     lambda(   15)= -0.0112   gamma=  378.78 GHz
     lambda(   16)= -0.0077   gamma=  255.10 GHz
     lambda(   17)= -0.0080   gamma=  253.43 GHz
     lambda(   18)= -0.0049   gamma=  139.22 GHz
     lambda(   19)= -0.0024   gamma=   56.54 GHz
     lambda(   20)= -0.0028   gamma=   55.41 GHz
     lambda(   21)= -0.0008   gamma=   12.10 GHz
     lambda(   22)= -0.0199   gamma=  125.40 GHz
     lambda(   23)=  0.0053   gamma=   52.41 GHz
     lambda(   24)=  0.0009   gamma=   23.95 GHz

     Calculation of q =    0.0000000   0.0000000   0.2500000

     Subspace diagonalization in iterative solution of the eigenvalue problem:
     one sub-group per band group will be used
     scalapack distributed-memory algorithm (size of sub-group:  2*  2 procs)


     Parallelization info
     --------------------
     sticks:   dense  smooth     PW     G-vecs:    dense   smooth      PW
     Min         309     154     46                11645     4122     680
     Max         310     155     47                11646     4125     683
     Sum        2477    1237    373                93165    32987    5449


     Title: 
     YSbH6 phonon + electron-phonon 4x4x4 q (A15 ternary hydride · Cr3Si motif)


     bravais-lattice index     =            0
     lattice parameter (alat)  =       6.9865  a.u.
     unit-cell volume          =     341.0203 (a.u.)^3
     number of atoms/cell      =            8
     number of atomic types    =            3
     number of electrons       =        22.00
     number of Kohn-Sham states=           15
     kinetic-energy cutoff     =      80.0000  Ry
     charge density cutoff     =     640.0000  Ry
     Exchange-correlation= PBE
                           (   1   4   3   4   0   0   0)

     celldm(1)=   6.986506  celldm(2)=   0.000000  celldm(3)=   0.000000
     celldm(4)=   0.000000  celldm(5)=   0.000000  celldm(6)=   0.000000

     crystal axes: (cart. coord. in units of alat)
               a(1) = (   1.000000   0.000000   0.000000 )  
               a(2) = (   0.000000   1.000000   0.000000 )  
               a(3) = (   0.000000   0.000000   1.000000 )  

     reciprocal axes: (cart. coord. in units 2 pi/alat)
               b(1) = (  1.000000 -0.000000 -0.000000 )  
               b(2) = ( -0.000000  1.000000 -0.000000 )  
               b(3) = ( -0.000000 -0.000000  1.000000 )  


     PseudoPot. # 1 for Y  read from file:
     ./pseudo/Y.pbe-spn-rrkjus_psl.1.0.0.UPF
     MD5 check sum: d801e27cd54ae79b7791715f927f78c5
     Pseudo is Ultrasoft + core correction, Zval = 11.0
     Generated using &quot;atomic&quot; code by A. Dal Corso  v.6.2.2
     Using radial grid of 1223 points,  6 beta functions with: 
                l(1) =   0
                l(2) =   0
                l(3) =   1
                l(4) =   1
                l(5) =   2
                l(6) =   2
     Q(r) pseudized with 0 coefficients 


     PseudoPot. # 2 for Sb read from file:
     ./pseudo/Sb.pbe-n-rrkjus_psl.1.0.0.UPF
     MD5 check sum: 7d68795a62f736444403b4da965a1dbf
     Pseudo is Ultrasoft + core correction, Zval =  5.0
     Generated using &quot;atomic&quot; code by A. Dal Corso  v.6.2.2
     Using radial grid of 1243 points,  6 beta functions with: 
                l(1) =   0
                l(2) =   0
                l(3) =   1
                l(4) =   1
                l(5) =   2
                l(6) =   2
     Q(r) pseudized with 0 coefficients 


     PseudoPot. # 3 for H  read from file:
     ./pseudo/H.pbe-rrkjus_psl.1.0.0.UPF
     MD5 check sum: 9e615844a0e642e0aee8526d0d0f65f7
     Pseudo is Ultrasoft, Zval =  1.0
     Generated using &quot;atomic&quot; code by A. Dal Corso  v.6.3MaX
     Using radial grid of  929 points,  2 beta functions with: 
                l(1) =   0
                l(2) =   0
     Q(r) pseudized with 0 coefficients 


     atomic species   valence    mass     pseudopotential
        Y             11.00    88.90600     Y ( 1.00)
        Sb             5.00   121.76000     Sb( 1.00)
        H              1.00     1.00800     H ( 1.00)

     No symmetry found



   Cartesian axes

     site n.     atom                  positions (alat units)
         1           Y   tau(   1) = (   0.0000000  -0.0000000   0.0000000  )
         2           Sb  tau(   2) = (   0.5000001   0.5000000   0.5000002  )
         3           H   tau(   3) = (   0.2409205   0.0000000   0.5000000  )
         4           H   tau(   4) = (   0.7590798   0.0000000   0.5000003  )
         5           H   tau(   5) = (   0.5000000   0.2409203   0.0000002  )
         6           H   tau(   6) = (   0.5000000   0.7590797   0.0000002  )
         7           H   tau(   7) = (   0.0000001   0.5000000   0.2409203  )
         8           H   tau(   8) = (   0.0000002   0.5000001   0.7590798  )

     number of k points=  8192  Methfessel-Paxton smearing, width (Ry)=  0.0200

     Number of k-points >= 100: set verbosity='high' to print them.

     Dense  grid:    93165 G-vectors     FFT dimensions: (  60,  60,  60)

     Smooth grid:    32987 G-vectors     FFT dimensions: (  40,  40,  40)

     Estimated max dynamical RAM per process >      45.24 MB

     Estimated total dynamical RAM >     361.95 MB

     The potential is recalculated from file :
     ./out/_ph0/ysbh6.q_2/ysbh6.save/charge-density


 %%%%%%%%%%%%%%%%%%%%%%%%%%%%%%%%%%%%%%%%%%%%%%%%%%%%%%%%%%%%%%%%%%%%%%%%%%%%%%
     Error in routine potinit (1):
     starting and expected charges differ
 %%%%%%%%%%%%%%%%%%%%%%%%%%%%%%%%%%%%%%%%%%%%%%%%%%%%%%%%%%%%%%%%%%%%%%%%%%%%%%

     stopping ...
--------------------------------------------------------------------------
MPI_ABORT was invoked on rank 0 in communicator MPI_COMM_WORLD
with errorcode 1.

NOTE: invoking MPI_ABORT causes Open MPI to kill all MPI processes.
You may or may not see output from other processes, depending on
exactly when Open MPI kills them.
--------------------------------------------------------------------------
[76e5a1e3ddb9:01439] 7 more processes have sent help message help-mpi-api.txt / mpi-abort
[76e5a1e3ddb9:01439] Set MCA parameter "orte_base_help_aggregate" to 0 to see all help / error messages
