
     Program PWSCF v.6.7MaX starts on  1Jun2026 at  0:24: 6 

     This program is part of the open-source Quantum ESPRESSO suite
     for quantum simulation of materials; please cite
         "P. Giannozzi et al., J. Phys.:Condens. Matter 21 395502 (2009);
         "P. Giannozzi et al., J. Phys.:Condens. Matter 29 465901 (2017);
          URL http://www.quantum-espresso.org", 
     in publications or presentations arising from this work. More details at
     http://www.quantum-espresso.org/quote

     Parallel version (MPI), running on     8 processors

     MPI processes distributed on     1 nodes
     R & G space division:  proc/nbgrp/npool/nimage =       8
     Reading input from scf.in

     Current dimensions of program PWSCF are:
     Max number of different atomic species (ntypx) = 10
     Max number of k-points (npk) =  40000
     Max angular momentum in pseudopotentials (lmaxx) =  3
     file Y.pbe-spn-rrkjus_psl.1.0.0.UPF: wavefunction(s)  4S renormalized
     file Sb.pbe-n-rrkjus_psl.1.0.0.UPF: wavefunction(s)  5S renormalized

     Subspace diagonalization in iterative solution of the eigenvalue problem:
     a serial algorithm will be used


     Parallelization info
     --------------------
     sticks:   dense  smooth     PW     G-vecs:    dense   smooth      PW
     Min         309     154     45                11645     4122     657
     Max         310     155     47                11646     4125     658
     Sum        2477    1237    365                93165    32987    5257



     bravais-lattice index     =            0
     lattice parameter (alat)  =       6.9865  a.u.
     unit-cell volume          =     341.0203 (a.u.)^3
     number of atoms/cell      =            8
     number of atomic types    =            3
     number of electrons       =        22.00
     number of Kohn-Sham states=           15
     kinetic-energy cutoff     =      80.0000  Ry
     charge density cutoff     =     640.0000  Ry
     scf convergence threshold =      1.0E-12
     mixing beta               =       0.4000
     number of iterations used =            8  plain     mixing
     Exchange-correlation= PBE
                           (   1   4   3   4   0   0   0)

     celldm(1)=   6.986506  celldm(2)=   0.000000  celldm(3)=   0.000000
     celldm(4)=   0.000000  celldm(5)=   0.000000  celldm(6)=   0.000000

     crystal axes: (cart. coord. in units of alat)
               a(1) = (   1.000000   0.000000   0.000000 )  
               a(2) = (   0.000000   1.000000   0.000000 )  
               a(3) = (   0.000000   0.000000   1.000000 )  

     reciprocal axes: (cart. coord. in units 2 pi/alat)
               b(1) = (  1.000000 -0.000000 -0.000000 )  
               b(2) = ( -0.000000  1.000000 -0.000000 )  
               b(3) = ( -0.000000 -0.000000  1.000000 )  


     PseudoPot. # 1 for Y  read from file:
     ./pseudo/Y.pbe-spn-rrkjus_psl.1.0.0.UPF
     MD5 check sum: d801e27cd54ae79b7791715f927f78c5
     Pseudo is Ultrasoft + core correction, Zval = 11.0
     Generated using &quot;atomic&quot; code by A. Dal Corso  v.6.2.2
     Using radial grid of 1223 points,  6 beta functions with: 
                l(1) =   0
                l(2) =   0
                l(3) =   1
                l(4) =   1
                l(5) =   2
                l(6) =   2
     Q(r) pseudized with 0 coefficients 


     PseudoPot. # 2 for Sb read from file:
     ./pseudo/Sb.pbe-n-rrkjus_psl.1.0.0.UPF
     MD5 check sum: 7d68795a62f736444403b4da965a1dbf
     Pseudo is Ultrasoft + core correction, Zval =  5.0
     Generated using &quot;atomic&quot; code by A. Dal Corso  v.6.2.2
     Using radial grid of 1243 points,  6 beta functions with: 
                l(1) =   0
                l(2) =   0
                l(3) =   1
                l(4) =   1
                l(5) =   2
                l(6) =   2
     Q(r) pseudized with 0 coefficients 


     PseudoPot. # 3 for H  read from file:
     ./pseudo/H.pbe-rrkjus_psl.1.0.0.UPF
     MD5 check sum: 9e615844a0e642e0aee8526d0d0f65f7
     Pseudo is Ultrasoft, Zval =  1.0
     Generated using &quot;atomic&quot; code by A. Dal Corso  v.6.3MaX
     Using radial grid of  929 points,  2 beta functions with: 
                l(1) =   0
                l(2) =   0
     Q(r) pseudized with 0 coefficients 


     atomic species   valence    mass     pseudopotential
        Y             11.00    88.90600     Y ( 1.00)
        Sb             5.00   121.76000     Sb( 1.00)
        H              1.00     1.00800     H ( 1.00)

     No symmetry found


                                    s                        frac. trans.

      isym =  1     identity                                     

 cryst.   s( 1) = (     1          0          0      )
                  (     0          1          0      )
                  (     0          0          1      )

 cart.    s( 1) = (  1.0000000 -0.0000000  0.0000000 )
                  ( -0.0000000  1.0000000  0.0000000 )
                  (  0.0000000 -0.0000000  1.0000000 )


   Cartesian axes

     site n.     atom                  positions (alat units)
         1           Y   tau(   1) = (   0.0000000  -0.0000000   0.0000000  )
         2           Sb  tau(   2) = (   0.5000001   0.5000000   0.5000002  )
         3           H   tau(   3) = (   0.2409205   0.0000000   0.5000000  )
         4           H   tau(   4) = (   0.7590798   0.0000000   0.5000003  )
         5           H   tau(   5) = (   0.5000000   0.2409203   0.0000002  )
         6           H   tau(   6) = (   0.5000000   0.7590797   0.0000002  )
         7           H   tau(   7) = (   0.0000001   0.5000000   0.2409203  )
         8           H   tau(   8) = (   0.0000002   0.5000001   0.7590798  )

   Crystallographic axes

     site n.     atom                  positions (cryst. coord.)
         1           Y   tau(   1) = (  0.0000000 -0.0000000  0.0000000  )
         2           Sb  tau(   2) = (  0.5000000  0.5000000  0.5000000  )
         3           H   tau(   3) = (  0.2409203  0.0000000  0.4999999  )
         4           H   tau(   4) = (  0.7590797 -0.0000000  0.5000001  )
         5           H   tau(   5) = (  0.5000000  0.2409203  0.0000000  )
         6           H   tau(   6) = (  0.5000000  0.7590797 -0.0000000  )
         7           H   tau(   7) = (  0.0000001  0.5000000  0.2409203  )
         8           H   tau(   8) = ( -0.0000001  0.5000000  0.7590797  )

     number of k points=  2052  Methfessel-Paxton smearing, width (Ry)=  0.0200
                       cart. coord. in units 2pi/alat
        k(    1) = (   0.0000000   0.0000000   0.0000000), wk =   0.0004883
        k(    2) = (  -0.0000000  -0.0000000   0.0625000), wk =   0.0009766
        k(    3) = (  -0.0000000  -0.0000000   0.1250000), wk =   0.0009766
        k(    4) = (  -0.0000001  -0.0000000   0.1875000), wk =   0.0009766
        k(    5) = (  -0.0000001  -0.0000000   0.2500000), wk =   0.0009766
        k(    6) = (  -0.0000001  -0.0000000   0.3125000), wk =   0.0009766
        k(    7) = (  -0.0000001  -0.0000000   0.3750000), wk =   0.0009766
        k(    8) = (  -0.0000001  -0.0000000   0.4375000), wk =   0.0009766
        k(    9) = (   0.0000001   0.0000000  -0.5000000), wk =   0.0004883
        k(   10) = (  -0.0000000   0.0625000  -0.0000000), wk =   0.0009766
        k(   11) = (  -0.0000000   0.0625000   0.0625000), wk =   0.0009766
        k(   12) = (  -0.0000000   0.0625000   0.1250000), wk =   0.0009766
        k(   13) = (  -0.0000001   0.0625000   0.1875000), wk =   0.0009766
        k(   14) = (  -0.0000001   0.0625000   0.2500000), wk =   0.0009766
        k(   15) = (  -0.0000001   0.0625000   0.3125000), wk =   0.0009766
        k(   16) = (  -0.0000001   0.0625000   0.3750000), wk =   0.0009766
        k(   17) = (  -0.0000001   0.0625000   0.4375000), wk =   0.0009766
        k(   18) = (   0.0000001   0.0625000  -0.5000000), wk =   0.0009766
        k(   19) = (   0.0000001   0.0625000  -0.4375000), wk =   0.0009766
        k(   20) = (   0.0000001   0.0625000  -0.3750000), wk =   0.0009766
        k(   21) = (   0.0000001   0.0625000  -0.3125000), wk =   0.0009766
        k(   22) = (   0.0000001   0.0625000  -0.2500000), wk =   0.0009766
        k(   23) = (   0.0000001   0.0625000  -0.1875000), wk =   0.0009766
        k(   24) = (   0.0000000   0.0625000  -0.1250000), wk =   0.0009766
        k(   25) = (   0.0000000   0.0625000  -0.0625000), wk =   0.0009766
        k(   26) = (  -0.0000000   0.1250000  -0.0000000), wk =   0.0009766
        k(   27) = (  -0.0000000   0.1250000   0.0625000), wk =   0.0009766
        k(   28) = (  -0.0000000   0.1250000   0.1250000), wk =   0.0009766
        k(   29) = (  -0.0000001   0.1250000   0.1875000), wk =   0.0009766
        k(   30) = (  -0.0000001   0.1250000   0.2500000), wk =   0.0009766
        k(   31) = (  -0.0000001   0.1250000   0.3125000), wk =   0.0009766
        k(   32) = (  -0.0000001   0.1250000   0.3750000), wk =   0.0009766
        k(   33) = (  -0.0000001   0.1250000   0.4375000), wk =   0.0009766
        k(   34) = (   0.0000001   0.1250000  -0.5000000), wk =   0.0009766
        k(   35) = (   0.0000001   0.1250000  -0.4375000), wk =   0.0009766
        k(   36) = (   0.0000001   0.1250000  -0.3750000), wk =   0.0009766
        k(   37) = (   0.0000001   0.1250000  -0.3125000), wk =   0.0009766
        k(   38) = (   0.0000001   0.1250000  -0.2500000), wk =   0.0009766
        k(   39) = (   0.0000001   0.1250000  -0.1875000), wk =   0.0009766
        k(   40) = (   0.0000000   0.1250000  -0.1250000), wk =   0.0009766
        k(   41) = (   0.0000000   0.1250000  -0.0625000), wk =   0.0009766
        k(   42) = (  -0.0000000   0.1875000  -0.0000000), wk =   0.0009766
        k(   43) = (  -0.0000000   0.1875000   0.0625000), wk =   0.0009766
        k(   44) = (  -0.0000000   0.1875000   0.1250000), wk =   0.0009766
        k(   45) = (  -0.0000001   0.1875000   0.1875000), wk =   0.0009766
        k(   46) = (  -0.0000001   0.1875000   0.2500000), wk =   0.0009766
        k(   47) = (  -0.0000001   0.1875000   0.3125000), wk =   0.0009766
        k(   48) = (  -0.0000001   0.1875000   0.3750000), wk =   0.0009766
        k(   49) = (  -0.0000001   0.1875000   0.4375000), wk =   0.0009766
        k(   50) = (   0.0000001   0.1875000  -0.5000000), wk =   0.0009766
        k(   51) = (   0.0000001   0.1875000  -0.4375000), wk =   0.0009766
        k(   52) = (   0.0000001   0.1875000  -0.3750000), wk =   0.0009766
        k(   53) = (   0.0000001   0.1875000  -0.3125000), wk =   0.0009766
        k(   54) = (   0.0000001   0.1875000  -0.2500000), wk =   0.0009766
        k(   55) = (   0.0000001   0.1875000  -0.1875000), wk =   0.0009766
        k(   56) = (   0.0000000   0.1875000  -0.1250000), wk =   0.0009766
        k(   57) = (   0.0000000   0.1875000  -0.0625000), wk =   0.0009766
        k(   58) = (  -0.0000000   0.2500000  -0.0000000), wk =   0.0009766
        k(   59) = (  -0.0000000   0.2500000   0.0625000), wk =   0.0009766
        k(   60) = (  -0.0000000   0.2500000   0.1250000), wk =   0.0009766
        k(   61) = (  -0.0000001   0.2500000   0.1875000), wk =   0.0009766
        k(   62) = (  -0.0000001   0.2500000   0.2500000), wk =   0.0009766
        k(   63) = (  -0.0000001   0.2500000   0.3125000), wk =   0.0009766
        k(   64) = (  -0.0000001   0.2500000   0.3750000), wk =   0.0009766
        k(   65) = (  -0.0000001   0.2500000   0.4375000), wk =   0.0009766
        k(   66) = (   0.0000001   0.2500000  -0.5000000), wk =   0.0009766
        k(   67) = (   0.0000001   0.2500000  -0.4375000), wk =   0.0009766
        k(   68) = (   0.0000001   0.2500000  -0.3750000), wk =   0.0009766
        k(   69) = (   0.0000001   0.2500000  -0.3125000), wk =   0.0009766
        k(   70) = (   0.0000001   0.2500000  -0.2500000), wk =   0.0009766
        k(   71) = (   0.0000001   0.2500000  -0.1875000), wk =   0.0009766
        k(   72) = (   0.0000000   0.2500000  -0.1250000), wk =   0.0009766
        k(   73) = (   0.0000000   0.2500000  -0.0625000), wk =   0.0009766
        k(   74) = (  -0.0000000   0.3125000  -0.0000000), wk =   0.0009766
        k(   75) = (  -0.0000000   0.3125000   0.0625000), wk =   0.0009766
        k(   76) = (  -0.0000000   0.3125000   0.1250000), wk =   0.0009766
        k(   77) = (  -0.0000001   0.3125000   0.1875000), wk =   0.0009766
        k(   78) = (  -0.0000001   0.3125000   0.2500000), wk =   0.0009766
        k(   79) = (  -0.0000001   0.3125000   0.3125000), wk =   0.0009766
        k(   80) = (  -0.0000001   0.3125000   0.3750000), wk =   0.0009766
        k(   81) = (  -0.0000001   0.3125000   0.4375000), wk =   0.0009766
        k(   82) = (   0.0000001   0.3125000  -0.5000000), wk =   0.0009766
        k(   83) = (   0.0000001   0.3125000  -0.4375000), wk =   0.0009766
        k(   84) = (   0.0000001   0.3125000  -0.3750000), wk =   0.0009766
        k(   85) = (   0.0000001   0.3125000  -0.3125000), wk =   0.0009766
        k(   86) = (   0.0000001   0.3125000  -0.2500000), wk =   0.0009766
        k(   87) = (   0.0000001   0.3125000  -0.1875000), wk =   0.0009766
        k(   88) = (   0.0000000   0.3125000  -0.1250000), wk =   0.0009766
        k(   89) = (   0.0000000   0.3125000  -0.0625000), wk =   0.0009766
        k(   90) = (  -0.0000000   0.3750000  -0.0000000), wk =   0.0009766
        k(   91) = (  -0.0000000   0.3750000   0.0625000), wk =   0.0009766
        k(   92) = (  -0.0000000   0.3750000   0.1250000), wk =   0.0009766
        k(   93) = (  -0.0000001   0.3750000   0.1875000), wk =   0.0009766
        k(   94) = (  -0.0000001   0.3750000   0.2500000), wk =   0.0009766
        k(   95) = (  -0.0000001   0.3750000   0.3125000), wk =   0.0009766
        k(   96) = (  -0.0000001   0.3750000   0.3750000), wk =   0.0009766
        k(   97) = (  -0.0000001   0.3750000   0.4375000), wk =   0.0009766
        k(   98) = (   0.0000001   0.3750000  -0.5000000), wk =   0.0009766
        k(   99) = (   0.0000001   0.3750000  -0.4375000), wk =   0.0009766
        k(  100) = (   0.0000001   0.3750000  -0.3750000), wk =   0.0009766
        k(  101) = (   0.0000001   0.3750000  -0.3125000), wk =   0.0009766
        k(  102) = (   0.0000001   0.3750000  -0.2500000), wk =   0.0009766
        k(  103) = (   0.0000001   0.3750000  -0.1875000), wk =   0.0009766
        k(  104) = (   0.0000000   0.3750000  -0.1250000), wk =   0.0009766
        k(  105) = (   0.0000000   0.3750000  -0.0625000), wk =   0.0009766
        k(  106) = (  -0.0000000   0.4375000  -0.0000000), wk =   0.0009766
        k(  107) = (  -0.0000000   0.4375000   0.0625000), wk =   0.0009766
        k(  108) = (  -0.0000000   0.4375000   0.1250000), wk =   0.0009766
        k(  109) = (  -0.0000001   0.4375000   0.1875000), wk =   0.0009766
        k(  110) = (  -0.0000001   0.4375000   0.2500000), wk =   0.0009766
        k(  111) = (  -0.0000001   0.4375000   0.3125000), wk =   0.0009766
        k(  112) = (  -0.0000001   0.4375000   0.3750000), wk =   0.0009766
        k(  113) = (  -0.0000001   0.4375000   0.4375000), wk =   0.0009766
        k(  114) = (   0.0000001   0.4375000  -0.5000000), wk =   0.0009766
        k(  115) = (   0.0000001   0.4375000  -0.4375000), wk =   0.0009766
        k(  116) = (   0.0000001   0.4375000  -0.3750000), wk =   0.0009766
        k(  117) = (   0.0000001   0.4375000  -0.3125000), wk =   0.0009766
        k(  118) = (   0.0000001   0.4375000  -0.2500000), wk =   0.0009766
        k(  119) = (   0.0000001   0.4375000  -0.1875000), wk =   0.0009766
        k(  120) = (   0.0000000   0.4375000  -0.1250000), wk =   0.0009766
        k(  121) = (   0.0000000   0.4375000  -0.0625000), wk =   0.0009766
        k(  122) = (   0.0000000  -0.5000000   0.0000000), wk =   0.0004883
        k(  123) = (  -0.0000000  -0.5000000   0.0625000), wk =   0.0009766
        k(  124) = (  -0.0000000  -0.5000000   0.1250000), wk =   0.0009766
        k(  125) = (  -0.0000001  -0.5000000   0.1875000), wk =   0.0009766
        k(  126) = (  -0.0000001  -0.5000000   0.2500000), wk =   0.0009766
        k(  127) = (  -0.0000001  -0.5000000   0.3125000), wk =   0.0009766
        k(  128) = (  -0.0000001  -0.5000000   0.3750000), wk =   0.0009766
        k(  129) = (  -0.0000001  -0.5000000   0.4375000), wk =   0.0009766
        k(  130) = (   0.0000001  -0.5000000  -0.5000000), wk =   0.0004883
        k(  131) = (   0.0625000  -0.0000000  -0.0000000), wk =   0.0009766
        k(  132) = (   0.0625000  -0.0000000   0.0625000), wk =   0.0009766
        k(  133) = (   0.0625000  -0.0000000   0.1250000), wk =   0.0009766
        k(  134) = (   0.0624999  -0.0000000   0.1875000), wk =   0.0009766
        k(  135) = (   0.0624999  -0.0000000   0.2500000), wk =   0.0009766
        k(  136) = (   0.0624999  -0.0000000   0.3125000), wk =   0.0009766
        k(  137) = (   0.0624999  -0.0000000   0.3750000), wk =   0.0009766
        k(  138) = (   0.0624999  -0.0000000   0.4375000), wk =   0.0009766
        k(  139) = (   0.0625001   0.0000000  -0.5000000), wk =   0.0009766
        k(  140) = (   0.0625001   0.0000000  -0.4375000), wk =   0.0009766
        k(  141) = (   0.0625001   0.0000000  -0.3750000), wk =   0.0009766
        k(  142) = (   0.0625001   0.0000000  -0.3125000), wk =   0.0009766
        k(  143) = (   0.0625001   0.0000000  -0.2500000), wk =   0.0009766
        k(  144) = (   0.0625001   0.0000000  -0.1875000), wk =   0.0009766
        k(  145) = (   0.0625000   0.0000000  -0.1250000), wk =   0.0009766
        k(  146) = (   0.0625000   0.0000000  -0.0625000), wk =   0.0009766
        k(  147) = (   0.0625000   0.0625000  -0.0000000), wk =   0.0009766
        k(  148) = (   0.0625000   0.0625000   0.0625000), wk =   0.0009766
        k(  149) = (   0.0625000   0.0625000   0.1250000), wk =   0.0009766
        k(  150) = (   0.0624999   0.0625000   0.1875000), wk =   0.0009766
        k(  151) = (   0.0624999   0.0625000   0.2500000), wk =   0.0009766
        k(  152) = (   0.0624999   0.0625000   0.3125000), wk =   0.0009766
        k(  153) = (   0.0624999   0.0625000   0.3750000), wk =   0.0009766
        k(  154) = (   0.0624999   0.0625000   0.4375000), wk =   0.0009766
        k(  155) = (   0.0625001   0.0625000  -0.5000000), wk =   0.0009766
        k(  156) = (   0.0625001   0.0625000  -0.4375000), wk =   0.0009766
        k(  157) = (   0.0625001   0.0625000  -0.3750000), wk =   0.0009766
        k(  158) = (   0.0625001   0.0625000  -0.3125000), wk =   0.0009766
        k(  159) = (   0.0625001   0.0625000  -0.2500000), wk =   0.0009766
        k(  160) = (   0.0625001   0.0625000  -0.1875000), wk =   0.0009766
        k(  161) = (   0.0625000   0.0625000  -0.1250000), wk =   0.0009766
        k(  162) = (   0.0625000   0.0625000  -0.0625000), wk =   0.0009766
        k(  163) = (   0.0625000   0.1250000  -0.0000000), wk =   0.0009766
        k(  164) = (   0.0625000   0.1250000   0.0625000), wk =   0.0009766
        k(  165) = (   0.0625000   0.1250000   0.1250000), wk =   0.0009766
        k(  166) = (   0.0624999   0.1250000   0.1875000), wk =   0.0009766
        k(  167) = (   0.0624999   0.1250000   0.2500000), wk =   0.0009766
        k(  168) = (   0.0624999   0.1250000   0.3125000), wk =   0.0009766
        k(  169) = (   0.0624999   0.1250000   0.3750000), wk =   0.0009766
        k(  170) = (   0.0624999   0.1250000   0.4375000), wk =   0.0009766
        k(  171) = (   0.0625001   0.1250000  -0.5000000), wk =   0.0009766
        k(  172) = (   0.0625001   0.1250000  -0.4375000), wk =   0.0009766
        k(  173) = (   0.0625001   0.1250000  -0.3750000), wk =   0.0009766
        k(  174) = (   0.0625001   0.1250000  -0.3125000), wk =   0.0009766
        k(  175) = (   0.0625001   0.1250000  -0.2500000), wk =   0.0009766
        k(  176) = (   0.0625001   0.1250000  -0.1875000), wk =   0.0009766
        k(  177) = (   0.0625000   0.1250000  -0.1250000), wk =   0.0009766
        k(  178) = (   0.0625000   0.1250000  -0.0625000), wk =   0.0009766
        k(  179) = (   0.0625000   0.1875000  -0.0000000), wk =   0.0009766
        k(  180) = (   0.0625000   0.1875000   0.0625000), wk =   0.0009766
        k(  181) = (   0.0625000   0.1875000   0.1250000), wk =   0.0009766
        k(  182) = (   0.0624999   0.1875000   0.1875000), wk =   0.0009766
        k(  183) = (   0.0624999   0.1875000   0.2500000), wk =   0.0009766
        k(  184) = (   0.0624999   0.1875000   0.3125000), wk =   0.0009766
        k(  185) = (   0.0624999   0.1875000   0.3750000), wk =   0.0009766
        k(  186) = (   0.0624999   0.1875000   0.4375000), wk =   0.0009766
        k(  187) = (   0.0625001   0.1875000  -0.5000000), wk =   0.0009766
        k(  188) = (   0.0625001   0.1875000  -0.4375000), wk =   0.0009766
        k(  189) = (   0.0625001   0.1875000  -0.3750000), wk =   0.0009766
        k(  190) = (   0.0625001   0.1875000  -0.3125000), wk =   0.0009766
        k(  191) = (   0.0625001   0.1875000  -0.2500000), wk =   0.0009766
        k(  192) = (   0.0625001   0.1875000  -0.1875000), wk =   0.0009766
        k(  193) = (   0.0625000   0.1875000  -0.1250000), wk =   0.0009766
        k(  194) = (   0.0625000   0.1875000  -0.0625000), wk =   0.0009766
        k(  195) = (   0.0625000   0.2500000  -0.0000000), wk =   0.0009766
        k(  196) = (   0.0625000   0.2500000   0.0625000), wk =   0.0009766
        k(  197) = (   0.0625000   0.2500000   0.1250000), wk =   0.0009766
        k(  198) = (   0.0624999   0.2500000   0.1875000), wk =   0.0009766
        k(  199) = (   0.0624999   0.2500000   0.2500000), wk =   0.0009766
        k(  200) = (   0.0624999   0.2500000   0.3125000), wk =   0.0009766
        k(  201) = (   0.0624999   0.2500000   0.3750000), wk =   0.0009766
        k(  202) = (   0.0624999   0.2500000   0.4375000), wk =   0.0009766
        k(  203) = (   0.0625001   0.2500000  -0.5000000), wk =   0.0009766
        k(  204) = (   0.0625001   0.2500000  -0.4375000), wk =   0.0009766
        k(  205) = (   0.0625001   0.2500000  -0.3750000), wk =   0.0009766
        k(  206) = (   0.0625001   0.2500000  -0.3125000), wk =   0.0009766
        k(  207) = (   0.0625001   0.2500000  -0.2500000), wk =   0.0009766
        k(  208) = (   0.0625001   0.2500000  -0.1875000), wk =   0.0009766
        k(  209) = (   0.0625000   0.2500000  -0.1250000), wk =   0.0009766
        k(  210) = (   0.0625000   0.2500000  -0.0625000), wk =   0.0009766
        k(  211) = (   0.0625000   0.3125000  -0.0000000), wk =   0.0009766
        k(  212) = (   0.0625000   0.3125000   0.0625000), wk =   0.0009766
        k(  213) = (   0.0625000   0.3125000   0.1250000), wk =   0.0009766
        k(  214) = (   0.0624999   0.3125000   0.1875000), wk =   0.0009766
        k(  215) = (   0.0624999   0.3125000   0.2500000), wk =   0.0009766
        k(  216) = (   0.0624999   0.3125000   0.3125000), wk =   0.0009766
        k(  217) = (   0.0624999   0.3125000   0.3750000), wk =   0.0009766
        k(  218) = (   0.0624999   0.3125000   0.4375000), wk =   0.0009766
        k(  219) = (   0.0625001   0.3125000  -0.5000000), wk =   0.0009766
        k(  220) = (   0.0625001   0.3125000  -0.4375000), wk =   0.0009766
        k(  221) = (   0.0625001   0.3125000  -0.3750000), wk =   0.0009766
        k(  222) = (   0.0625001   0.3125000  -0.3125000), wk =   0.0009766
        k(  223) = (   0.0625001   0.3125000  -0.2500000), wk =   0.0009766
        k(  224) = (   0.0625001   0.3125000  -0.1875000), wk =   0.0009766
        k(  225) = (   0.0625000   0.3125000  -0.1250000), wk =   0.0009766
        k(  226) = (   0.0625000   0.3125000  -0.0625000), wk =   0.0009766
        k(  227) = (   0.0625000   0.3750000  -0.0000000), wk =   0.0009766
        k(  228) = (   0.0625000   0.3750000   0.0625000), wk =   0.0009766
        k(  229) = (   0.0625000   0.3750000   0.1250000), wk =   0.0009766
        k(  230) = (   0.0624999   0.3750000   0.1875000), wk =   0.0009766
        k(  231) = (   0.0624999   0.3750000   0.2500000), wk =   0.0009766
        k(  232) = (   0.0624999   0.3750000   0.3125000), wk =   0.0009766
        k(  233) = (   0.0624999   0.3750000   0.3750000), wk =   0.0009766
        k(  234) = (   0.0624999   0.3750000   0.4375000), wk =   0.0009766
        k(  235) = (   0.0625001   0.3750000  -0.5000000), wk =   0.0009766
        k(  236) = (   0.0625001   0.3750000  -0.4375000), wk =   0.0009766
        k(  237) = (   0.0625001   0.3750000  -0.3750000), wk =   0.0009766
        k(  238) = (   0.0625001   0.3750000  -0.3125000), wk =   0.0009766
        k(  239) = (   0.0625001   0.3750000  -0.2500000), wk =   0.0009766
        k(  240) = (   0.0625001   0.3750000  -0.1875000), wk =   0.0009766
        k(  241) = (   0.0625000   0.3750000  -0.1250000), wk =   0.0009766
        k(  242) = (   0.0625000   0.3750000  -0.0625000), wk =   0.0009766
        k(  243) = (   0.0625000   0.4375000  -0.0000001), wk =   0.0009766
        k(  244) = (   0.0625000   0.4375000   0.0624999), wk =   0.0009766
        k(  245) = (   0.0625000   0.4375000   0.1249999), wk =   0.0009766
        k(  246) = (   0.0624999   0.4375000   0.1874999), wk =   0.0009766
        k(  247) = (   0.0624999   0.4375000   0.2499999), wk =   0.0009766
        k(  248) = (   0.0624999   0.4375000   0.3124999), wk =   0.0009766
        k(  249) = (   0.0624999   0.4375000   0.3749999), wk =   0.0009766
        k(  250) = (   0.0624999   0.4375000   0.4374999), wk =   0.0009766
        k(  251) = (   0.0625001   0.4375000  -0.5000001), wk =   0.0009766
        k(  252) = (   0.0625001   0.4375000  -0.4375001), wk =   0.0009766
        k(  253) = (   0.0625001   0.4375000  -0.3750001), wk =   0.0009766
        k(  254) = (   0.0625001   0.4375000  -0.3125001), wk =   0.0009766
        k(  255) = (   0.0625001   0.4375000  -0.2500001), wk =   0.0009766
        k(  256) = (   0.0625001   0.4375000  -0.1875001), wk =   0.0009766
        k(  257) = (   0.0625000   0.4375000  -0.1250001), wk =   0.0009766
        k(  258) = (   0.0625000   0.4375000  -0.0625001), wk =   0.0009766
        k(  259) = (   0.0625000  -0.5000000   0.0000000), wk =   0.0009766
        k(  260) = (   0.0625000  -0.5000000   0.0625000), wk =   0.0009766
        k(  261) = (   0.0625000  -0.5000000   0.1250000), wk =   0.0009766
        k(  262) = (   0.0624999  -0.5000000   0.1875000), wk =   0.0009766
        k(  263) = (   0.0624999  -0.5000000   0.2500000), wk =   0.0009766
        k(  264) = (   0.0624999  -0.5000000   0.3125000), wk =   0.0009766
        k(  265) = (   0.0624999  -0.5000000   0.3750000), wk =   0.0009766
        k(  266) = (   0.0624999  -0.5000000   0.4375000), wk =   0.0009766
        k(  267) = (   0.0625001  -0.5000000  -0.5000000), wk =   0.0009766
        k(  268) = (   0.0625001  -0.5000000  -0.4375000), wk =   0.0009766
        k(  269) = (   0.0625001  -0.5000000  -0.3750000), wk =   0.0009766
        k(  270) = (   0.0625001  -0.5000000  -0.3125000), wk =   0.0009766
        k(  271) = (   0.0625001  -0.5000000  -0.2500000), wk =   0.0009766
        k(  272) = (   0.0625001  -0.5000000  -0.1875000), wk =   0.0009766
        k(  273) = (   0.0625000  -0.5000000  -0.1250000), wk =   0.0009766
        k(  274) = (   0.0625000  -0.5000000  -0.0625000), wk =   0.0009766
        k(  275) = (   0.0625000  -0.4375000   0.0000000), wk =   0.0009766
        k(  276) = (   0.0625000  -0.4375000   0.0625000), wk =   0.0009766
        k(  277) = (   0.0625000  -0.4375000   0.1250000), wk =   0.0009766
        k(  278) = (   0.0624999  -0.4375000   0.1875000), wk =   0.0009766
        k(  279) = (   0.0624999  -0.4375000   0.2500000), wk =   0.0009766
        k(  280) = (   0.0624999  -0.4375000   0.3125000), wk =   0.0009766
        k(  281) = (   0.0624999  -0.4375000   0.3750000), wk =   0.0009766
        k(  282) = (   0.0624999  -0.4375000   0.4375000), wk =   0.0009766
        k(  283) = (   0.0625001  -0.4375000  -0.5000000), wk =   0.0009766
        k(  284) = (   0.0625001  -0.4375000  -0.4375000), wk =   0.0009766
        k(  285) = (   0.0625001  -0.4375000  -0.3750000), wk =   0.0009766
        k(  286) = (   0.0625001  -0.4375000  -0.3125000), wk =   0.0009766
        k(  287) = (   0.0625001  -0.4375000  -0.2500000), wk =   0.0009766
        k(  288) = (   0.0625001  -0.4375000  -0.1875000), wk =   0.0009766
        k(  289) = (   0.0625000  -0.4375000  -0.1250000), wk =   0.0009766
        k(  290) = (   0.0625000  -0.4375000  -0.0625000), wk =   0.0009766
        k(  291) = (   0.0625000  -0.3750000   0.0000000), wk =   0.0009766
        k(  292) = (   0.0625000  -0.3750000   0.0625000), wk =   0.0009766
        k(  293) = (   0.0625000  -0.3750000   0.1250000), wk =   0.0009766
        k(  294) = (   0.0624999  -0.3750000   0.1875000), wk =   0.0009766
        k(  295) = (   0.0624999  -0.3750000   0.2500000), wk =   0.0009766
        k(  296) = (   0.0624999  -0.3750000   0.3125000), wk =   0.0009766
        k(  297) = (   0.0624999  -0.3750000   0.3750000), wk =   0.0009766
        k(  298) = (   0.0624999  -0.3750000   0.4375000), wk =   0.0009766
        k(  299) = (   0.0625001  -0.3750000  -0.5000000), wk =   0.0009766
        k(  300) = (   0.0625001  -0.3750000  -0.4375000), wk =   0.0009766
        k(  301) = (   0.0625001  -0.3750000  -0.3750000), wk =   0.0009766
        k(  302) = (   0.0625001  -0.3750000  -0.3125000), wk =   0.0009766
        k(  303) = (   0.0625001  -0.3750000  -0.2500000), wk =   0.0009766
        k(  304) = (   0.0625001  -0.3750000  -0.1875000), wk =   0.0009766
        k(  305) = (   0.0625000  -0.3750000  -0.1250000), wk =   0.0009766
        k(  306) = (   0.0625000  -0.3750000  -0.0625000), wk =   0.0009766
        k(  307) = (   0.0625000  -0.3125000   0.0000000), wk =   0.0009766
        k(  308) = (   0.0625000  -0.3125000   0.0625000), wk =   0.0009766
        k(  309) = (   0.0625000  -0.3125000   0.1250000), wk =   0.0009766
        k(  310) = (   0.0624999  -0.3125000   0.1875000), wk =   0.0009766
        k(  311) = (   0.0624999  -0.3125000   0.2500000), wk =   0.0009766
        k(  312) = (   0.0624999  -0.3125000   0.3125000), wk =   0.0009766
        k(  313) = (   0.0624999  -0.3125000   0.3750000), wk =   0.0009766
        k(  314) = (   0.0624999  -0.3125000   0.4375000), wk =   0.0009766
        k(  315) = (   0.0625001  -0.3125000  -0.5000000), wk =   0.0009766
        k(  316) = (   0.0625001  -0.3125000  -0.4375000), wk =   0.0009766
        k(  317) = (   0.0625001  -0.3125000  -0.3750000), wk =   0.0009766
        k(  318) = (   0.0625001  -0.3125000  -0.3125000), wk =   0.0009766
        k(  319) = (   0.0625001  -0.3125000  -0.2500000), wk =   0.0009766
        k(  320) = (   0.0625001  -0.3125000  -0.1875000), wk =   0.0009766
        k(  321) = (   0.0625000  -0.3125000  -0.1250000), wk =   0.0009766
        k(  322) = (   0.0625000  -0.3125000  -0.0625000), wk =   0.0009766
        k(  323) = (   0.0625000  -0.2500000   0.0000000), wk =   0.0009766
        k(  324) = (   0.0625000  -0.2500000   0.0625000), wk =   0.0009766
        k(  325) = (   0.0625000  -0.2500000   0.1250000), wk =   0.0009766
        k(  326) = (   0.0624999  -0.2500000   0.1875000), wk =   0.0009766
        k(  327) = (   0.0624999  -0.2500000   0.2500000), wk =   0.0009766
        k(  328) = (   0.0624999  -0.2500000   0.3125000), wk =   0.0009766
        k(  329) = (   0.0624999  -0.2500000   0.3750000), wk =   0.0009766
        k(  330) = (   0.0624999  -0.2500000   0.4375000), wk =   0.0009766
        k(  331) = (   0.0625001  -0.2500000  -0.5000000), wk =   0.0009766
        k(  332) = (   0.0625001  -0.2500000  -0.4375000), wk =   0.0009766
        k(  333) = (   0.0625001  -0.2500000  -0.3750000), wk =   0.0009766
        k(  334) = (   0.0625001  -0.2500000  -0.3125000), wk =   0.0009766
        k(  335) = (   0.0625001  -0.2500000  -0.2500000), wk =   0.0009766
        k(  336) = (   0.0625001  -0.2500000  -0.1875000), wk =   0.0009766
        k(  337) = (   0.0625000  -0.2500000  -0.1250000), wk =   0.0009766
        k(  338) = (   0.0625000  -0.2500000  -0.0625000), wk =   0.0009766
        k(  339) = (   0.0625000  -0.1875000  -0.0000000), wk =   0.0009766
        k(  340) = (   0.0625000  -0.1875000   0.0625000), wk =   0.0009766
        k(  341) = (   0.0625000  -0.1875000   0.1250000), wk =   0.0009766
        k(  342) = (   0.0624999  -0.1875000   0.1875000), wk =   0.0009766
        k(  343) = (   0.0624999  -0.1875000   0.2500000), wk =   0.0009766
        k(  344) = (   0.0624999  -0.1875000   0.3125000), wk =   0.0009766
        k(  345) = (   0.0624999  -0.1875000   0.3750000), wk =   0.0009766
        k(  346) = (   0.0624999  -0.1875000   0.4375000), wk =   0.0009766
        k(  347) = (   0.0625001  -0.1875000  -0.5000000), wk =   0.0009766
        k(  348) = (   0.0625001  -0.1875000  -0.4375000), wk =   0.0009766
        k(  349) = (   0.0625001  -0.1875000  -0.3750000), wk =   0.0009766
        k(  350) = (   0.0625001  -0.1875000  -0.3125000), wk =   0.0009766
        k(  351) = (   0.0625001  -0.1875000  -0.2500000), wk =   0.0009766
        k(  352) = (   0.0625001  -0.1875000  -0.1875000), wk =   0.0009766
        k(  353) = (   0.0625000  -0.1875000  -0.1250000), wk =   0.0009766
        k(  354) = (   0.0625000  -0.1875000  -0.0625000), wk =   0.0009766
        k(  355) = (   0.0625000  -0.1250000  -0.0000000), wk =   0.0009766
        k(  356) = (   0.0625000  -0.1250000   0.0625000), wk =   0.0009766
        k(  357) = (   0.0625000  -0.1250000   0.1250000), wk =   0.0009766
        k(  358) = (   0.0624999  -0.1250000   0.1875000), wk =   0.0009766
        k(  359) = (   0.0624999  -0.1250000   0.2500000), wk =   0.0009766
        k(  360) = (   0.0624999  -0.1250000   0.3125000), wk =   0.0009766
        k(  361) = (   0.0624999  -0.1250000   0.3750000), wk =   0.0009766
        k(  362) = (   0.0624999  -0.1250000   0.4375000), wk =   0.0009766
        k(  363) = (   0.0625001  -0.1250000  -0.5000000), wk =   0.0009766
        k(  364) = (   0.0625001  -0.1250000  -0.4375000), wk =   0.0009766
        k(  365) = (   0.0625001  -0.1250000  -0.3750000), wk =   0.0009766
        k(  366) = (   0.0625001  -0.1250000  -0.3125000), wk =   0.0009766
        k(  367) = (   0.0625001  -0.1250000  -0.2500000), wk =   0.0009766
        k(  368) = (   0.0625001  -0.1250000  -0.1875000), wk =   0.0009766
        k(  369) = (   0.0625000  -0.1250000  -0.1250000), wk =   0.0009766
        k(  370) = (   0.0625000  -0.1250000  -0.0625000), wk =   0.0009766
        k(  371) = (   0.0625000  -0.0625000  -0.0000000), wk =   0.0009766
        k(  372) = (   0.0625000  -0.0625000   0.0625000), wk =   0.0009766
        k(  373) = (   0.0625000  -0.0625000   0.1250000), wk =   0.0009766
        k(  374) = (   0.0624999  -0.0625000   0.1875000), wk =   0.0009766
        k(  375) = (   0.0624999  -0.0625000   0.2500000), wk =   0.0009766
        k(  376) = (   0.0624999  -0.0625000   0.3125000), wk =   0.0009766
        k(  377) = (   0.0624999  -0.0625000   0.3750000), wk =   0.0009766
        k(  378) = (   0.0624999  -0.0625000   0.4375000), wk =   0.0009766
        k(  379) = (   0.0625001  -0.0625000  -0.5000000), wk =   0.0009766
        k(  380) = (   0.0625001  -0.0625000  -0.4375000), wk =   0.0009766
        k(  381) = (   0.0625001  -0.0625000  -0.3750000), wk =   0.0009766
        k(  382) = (   0.0625001  -0.0625000  -0.3125000), wk =   0.0009766
        k(  383) = (   0.0625001  -0.0625000  -0.2500000), wk =   0.0009766
        k(  384) = (   0.0625001  -0.0625000  -0.1875000), wk =   0.0009766
        k(  385) = (   0.0625000  -0.0625000  -0.1250000), wk =   0.0009766
        k(  386) = (   0.0625000  -0.0625000  -0.0625000), wk =   0.0009766
        k(  387) = (   0.1250000  -0.0000000  -0.0000000), wk =   0.0009766
        k(  388) = (   0.1250000  -0.0000000   0.0625000), wk =   0.0009766
        k(  389) = (   0.1250000  -0.0000000   0.1250000), wk =   0.0009766
        k(  390) = (   0.1249999  -0.0000000   0.1875000), wk =   0.0009766
        k(  391) = (   0.1249999  -0.0000000   0.2500000), wk =   0.0009766
        k(  392) = (   0.1249999  -0.0000000   0.3125000), wk =   0.0009766
        k(  393) = (   0.1249999  -0.0000000   0.3750000), wk =   0.0009766
        k(  394) = (   0.1249999  -0.0000000   0.4375000), wk =   0.0009766
        k(  395) = (   0.1250001   0.0000000  -0.5000000), wk =   0.0009766
        k(  396) = (   0.1250001   0.0000000  -0.4375000), wk =   0.0009766
        k(  397) = (   0.1250001   0.0000000  -0.3750000), wk =   0.0009766
        k(  398) = (   0.1250001   0.0000000  -0.3125000), wk =   0.0009766
        k(  399) = (   0.1250001   0.0000000  -0.2500000), wk =   0.0009766
        k(  400) = (   0.1250001   0.0000000  -0.1875000), wk =   0.0009766
        k(  401) = (   0.1250000   0.0000000  -0.1250000), wk =   0.0009766
        k(  402) = (   0.1250000   0.0000000  -0.0625000), wk =   0.0009766
        k(  403) = (   0.1250000   0.0625000  -0.0000000), wk =   0.0009766
        k(  404) = (   0.1250000   0.0625000   0.0625000), wk =   0.0009766
        k(  405) = (   0.1250000   0.0625000   0.1250000), wk =   0.0009766
        k(  406) = (   0.1249999   0.0625000   0.1875000), wk =   0.0009766
        k(  407) = (   0.1249999   0.0625000   0.2500000), wk =   0.0009766
        k(  408) = (   0.1249999   0.0625000   0.3125000), wk =   0.0009766
        k(  409) = (   0.1249999   0.0625000   0.3750000), wk =   0.0009766
        k(  410) = (   0.1249999   0.0625000   0.4375000), wk =   0.0009766
        k(  411) = (   0.1250001   0.0625000  -0.5000000), wk =   0.0009766
        k(  412) = (   0.1250001   0.0625000  -0.4375000), wk =   0.0009766
        k(  413) = (   0.1250001   0.0625000  -0.3750000), wk =   0.0009766
        k(  414) = (   0.1250001   0.0625000  -0.3125000), wk =   0.0009766
        k(  415) = (   0.1250001   0.0625000  -0.2500000), wk =   0.0009766
        k(  416) = (   0.1250001   0.0625000  -0.1875000), wk =   0.0009766
        k(  417) = (   0.1250000   0.0625000  -0.1250000), wk =   0.0009766
        k(  418) = (   0.1250000   0.0625000  -0.0625000), wk =   0.0009766
        k(  419) = (   0.1250000   0.1250000  -0.0000000), wk =   0.0009766
        k(  420) = (   0.1250000   0.1250000   0.0625000), wk =   0.0009766
        k(  421) = (   0.1250000   0.1250000   0.1250000), wk =   0.0009766
        k(  422) = (   0.1249999   0.1250000   0.1875000), wk =   0.0009766
        k(  423) = (   0.1249999   0.1250000   0.2500000), wk =   0.0009766
        k(  424) = (   0.1249999   0.1250000   0.3125000), wk =   0.0009766
        k(  425) = (   0.1249999   0.1250000   0.3750000), wk =   0.0009766
        k(  426) = (   0.1249999   0.1250000   0.4375000), wk =   0.0009766
        k(  427) = (   0.1250001   0.1250000  -0.5000000), wk =   0.0009766
        k(  428) = (   0.1250001   0.1250000  -0.4375000), wk =   0.0009766
        k(  429) = (   0.1250001   0.1250000  -0.3750000), wk =   0.0009766
        k(  430) = (   0.1250001   0.1250000  -0.3125000), wk =   0.0009766
        k(  431) = (   0.1250001   0.1250000  -0.2500000), wk =   0.0009766
        k(  432) = (   0.1250001   0.1250000  -0.1875000), wk =   0.0009766
        k(  433) = (   0.1250000   0.1250000  -0.1250000), wk =   0.0009766
        k(  434) = (   0.1250000   0.1250000  -0.0625000), wk =   0.0009766
        k(  435) = (   0.1250000   0.1875000  -0.0000001), wk =   0.0009766
        k(  436) = (   0.1250000   0.1875000   0.0624999), wk =   0.0009766
        k(  437) = (   0.1250000   0.1875000   0.1249999), wk =   0.0009766
        k(  438) = (   0.1249999   0.1875000   0.1874999), wk =   0.0009766
        k(  439) = (   0.1249999   0.1875000   0.2499999), wk =   0.0009766
        k(  440) = (   0.1249999   0.1875000   0.3124999), wk =   0.0009766
        k(  441) = (   0.1249999   0.1875000   0.3749999), wk =   0.0009766
        k(  442) = (   0.1249999   0.1875000   0.4374999), wk =   0.0009766
        k(  443) = (   0.1250001   0.1875000  -0.5000001), wk =   0.0009766
        k(  444) = (   0.1250001   0.1875000  -0.4375001), wk =   0.0009766
        k(  445) = (   0.1250001   0.1875000  -0.3750001), wk =   0.0009766
        k(  446) = (   0.1250001   0.1875000  -0.3125001), wk =   0.0009766
        k(  447) = (   0.1250001   0.1875000  -0.2500001), wk =   0.0009766
        k(  448) = (   0.1250001   0.1875000  -0.1875001), wk =   0.0009766
        k(  449) = (   0.1250000   0.1875000  -0.1250001), wk =   0.0009766
        k(  450) = (   0.1250000   0.1875000  -0.0625001), wk =   0.0009766
        k(  451) = (   0.1250000   0.2500000  -0.0000001), wk =   0.0009766
        k(  452) = (   0.1250000   0.2500000   0.0624999), wk =   0.0009766
        k(  453) = (   0.1250000   0.2500000   0.1249999), wk =   0.0009766
        k(  454) = (   0.1249999   0.2500000   0.1874999), wk =   0.0009766
        k(  455) = (   0.1249999   0.2500000   0.2499999), wk =   0.0009766
        k(  456) = (   0.1249999   0.2500000   0.3124999), wk =   0.0009766
        k(  457) = (   0.1249999   0.2500000   0.3749999), wk =   0.0009766
        k(  458) = (   0.1249999   0.2500000   0.4374999), wk =   0.0009766
        k(  459) = (   0.1250001   0.2500000  -0.5000001), wk =   0.0009766
        k(  460) = (   0.1250001   0.2500000  -0.4375001), wk =   0.0009766
        k(  461) = (   0.1250001   0.2500000  -0.3750001), wk =   0.0009766
        k(  462) = (   0.1250001   0.2500000  -0.3125001), wk =   0.0009766
        k(  463) = (   0.1250001   0.2500000  -0.2500001), wk =   0.0009766
        k(  464) = (   0.1250001   0.2500000  -0.1875001), wk =   0.0009766
        k(  465) = (   0.1250000   0.2500000  -0.1250001), wk =   0.0009766
        k(  466) = (   0.1250000   0.2500000  -0.0625001), wk =   0.0009766
        k(  467) = (   0.1250000   0.3125000  -0.0000001), wk =   0.0009766
        k(  468) = (   0.1250000   0.3125000   0.0624999), wk =   0.0009766
        k(  469) = (   0.1250000   0.3125000   0.1249999), wk =   0.0009766
        k(  470) = (   0.1249999   0.3125000   0.1874999), wk =   0.0009766
        k(  471) = (   0.1249999   0.3125000   0.2499999), wk =   0.0009766
        k(  472) = (   0.1249999   0.3125000   0.3124999), wk =   0.0009766
        k(  473) = (   0.1249999   0.3125000   0.3749999), wk =   0.0009766
        k(  474) = (   0.1249999   0.3125000   0.4374999), wk =   0.0009766
        k(  475) = (   0.1250001   0.3125000  -0.5000001), wk =   0.0009766
        k(  476) = (   0.1250001   0.3125000  -0.4375001), wk =   0.0009766
        k(  477) = (   0.1250001   0.3125000  -0.3750001), wk =   0.0009766
        k(  478) = (   0.1250001   0.3125000  -0.3125001), wk =   0.0009766
        k(  479) = (   0.1250001   0.3125000  -0.2500001), wk =   0.0009766
        k(  480) = (   0.1250001   0.3125000  -0.1875001), wk =   0.0009766
        k(  481) = (   0.1250000   0.3125000  -0.1250001), wk =   0.0009766
        k(  482) = (   0.1250000   0.3125000  -0.0625001), wk =   0.0009766
        k(  483) = (   0.1250000   0.3750000  -0.0000001), wk =   0.0009766
        k(  484) = (   0.1250000   0.3750000   0.0624999), wk =   0.0009766
        k(  485) = (   0.1250000   0.3750000   0.1249999), wk =   0.0009766
        k(  486) = (   0.1249999   0.3750000   0.1874999), wk =   0.0009766
        k(  487) = (   0.1249999   0.3750000   0.2499999), wk =   0.0009766
        k(  488) = (   0.1249999   0.3750000   0.3124999), wk =   0.0009766
        k(  489) = (   0.1249999   0.3750000   0.3749999), wk =   0.0009766
        k(  490) = (   0.1249999   0.3750000   0.4374999), wk =   0.0009766
        k(  491) = (   0.1250001   0.3750000  -0.5000001), wk =   0.0009766
        k(  492) = (   0.1250001   0.3750000  -0.4375001), wk =   0.0009766
        k(  493) = (   0.1250001   0.3750000  -0.3750001), wk =   0.0009766
        k(  494) = (   0.1250001   0.3750000  -0.3125001), wk =   0.0009766
        k(  495) = (   0.1250001   0.3750000  -0.2500001), wk =   0.0009766
        k(  496) = (   0.1250001   0.3750000  -0.1875001), wk =   0.0009766
        k(  497) = (   0.1250000   0.3750000  -0.1250001), wk =   0.0009766
        k(  498) = (   0.1250000   0.3750000  -0.0625001), wk =   0.0009766
        k(  499) = (   0.1250000   0.4375000  -0.0000001), wk =   0.0009766
        k(  500) = (   0.1250000   0.4375000   0.0624999), wk =   0.0009766
        k(  501) = (   0.1250000   0.4375000   0.1249999), wk =   0.0009766
        k(  502) = (   0.1249999   0.4375000   0.1874999), wk =   0.0009766
        k(  503) = (   0.1249999   0.4375000   0.2499999), wk =   0.0009766
        k(  504) = (   0.1249999   0.4375000   0.3124999), wk =   0.0009766
        k(  505) = (   0.1249999   0.4375000   0.3749999), wk =   0.0009766
        k(  506) = (   0.1249999   0.4375000   0.4374999), wk =   0.0009766
        k(  507) = (   0.1250001   0.4375000  -0.5000001), wk =   0.0009766
        k(  508) = (   0.1250001   0.4375000  -0.4375001), wk =   0.0009766
        k(  509) = (   0.1250001   0.4375000  -0.3750001), wk =   0.0009766
        k(  510) = (   0.1250001   0.4375000  -0.3125001), wk =   0.0009766
        k(  511) = (   0.1250001   0.4375000  -0.2500001), wk =   0.0009766
        k(  512) = (   0.1250001   0.4375000  -0.1875001), wk =   0.0009766
        k(  513) = (   0.1250000   0.4375000  -0.1250001), wk =   0.0009766
        k(  514) = (   0.1250000   0.4375000  -0.0625001), wk =   0.0009766
        k(  515) = (   0.1250000  -0.5000000   0.0000000), wk =   0.0009766
        k(  516) = (   0.1250000  -0.5000000   0.0625000), wk =   0.0009766
        k(  517) = (   0.1250000  -0.5000000   0.1250000), wk =   0.0009766
        k(  518) = (   0.1249999  -0.5000000   0.1875000), wk =   0.0009766
        k(  519) = (   0.1249999  -0.5000000   0.2500000), wk =   0.0009766
        k(  520) = (   0.1249999  -0.5000000   0.3125000), wk =   0.0009766
        k(  521) = (   0.1249999  -0.5000000   0.3750000), wk =   0.0009766
        k(  522) = (   0.1249999  -0.5000000   0.4375000), wk =   0.0009766
        k(  523) = (   0.1250001  -0.5000000  -0.5000000), wk =   0.0009766
        k(  524) = (   0.1250001  -0.5000000  -0.4375000), wk =   0.0009766
        k(  525) = (   0.1250001  -0.5000000  -0.3750000), wk =   0.0009766
        k(  526) = (   0.1250001  -0.5000000  -0.3125000), wk =   0.0009766
        k(  527) = (   0.1250001  -0.5000000  -0.2500000), wk =   0.0009766
        k(  528) = (   0.1250001  -0.5000000  -0.1875000), wk =   0.0009766
        k(  529) = (   0.1250000  -0.5000000  -0.1250000), wk =   0.0009766
        k(  530) = (   0.1250000  -0.5000000  -0.0625000), wk =   0.0009766
        k(  531) = (   0.1250000  -0.4375000  -0.0000000), wk =   0.0009766
        k(  532) = (   0.1250000  -0.4375000   0.0625000), wk =   0.0009766
        k(  533) = (   0.1250000  -0.4375000   0.1250000), wk =   0.0009766
        k(  534) = (   0.1249999  -0.4375000   0.1875000), wk =   0.0009766
        k(  535) = (   0.1249999  -0.4375000   0.2500000), wk =   0.0009766
        k(  536) = (   0.1249999  -0.4375000   0.3125000), wk =   0.0009766
        k(  537) = (   0.1249999  -0.4375000   0.3750000), wk =   0.0009766
        k(  538) = (   0.1249999  -0.4375000   0.4375000), wk =   0.0009766
        k(  539) = (   0.1250001  -0.4375000  -0.5000000), wk =   0.0009766
        k(  540) = (   0.1250001  -0.4375000  -0.4375000), wk =   0.0009766
        k(  541) = (   0.1250001  -0.4375000  -0.3750000), wk =   0.0009766
        k(  542) = (   0.1250001  -0.4375000  -0.3125000), wk =   0.0009766
        k(  543) = (   0.1250001  -0.4375000  -0.2500000), wk =   0.0009766
        k(  544) = (   0.1250001  -0.4375000  -0.1875000), wk =   0.0009766
        k(  545) = (   0.1250000  -0.4375000  -0.1250000), wk =   0.0009766
        k(  546) = (   0.1250000  -0.4375000  -0.0625000), wk =   0.0009766
        k(  547) = (   0.1250000  -0.3750000  -0.0000000), wk =   0.0009766
        k(  548) = (   0.1250000  -0.3750000   0.0625000), wk =   0.0009766
        k(  549) = (   0.1250000  -0.3750000   0.1250000), wk =   0.0009766
        k(  550) = (   0.1249999  -0.3750000   0.1875000), wk =   0.0009766
        k(  551) = (   0.1249999  -0.3750000   0.2500000), wk =   0.0009766
        k(  552) = (   0.1249999  -0.3750000   0.3125000), wk =   0.0009766
        k(  553) = (   0.1249999  -0.3750000   0.3750000), wk =   0.0009766
        k(  554) = (   0.1249999  -0.3750000   0.4375000), wk =   0.0009766
        k(  555) = (   0.1250001  -0.3750000  -0.5000000), wk =   0.0009766
        k(  556) = (   0.1250001  -0.3750000  -0.4375000), wk =   0.0009766
        k(  557) = (   0.1250001  -0.3750000  -0.3750000), wk =   0.0009766
        k(  558) = (   0.1250001  -0.3750000  -0.3125000), wk =   0.0009766
        k(  559) = (   0.1250001  -0.3750000  -0.2500000), wk =   0.0009766
        k(  560) = (   0.1250001  -0.3750000  -0.1875000), wk =   0.0009766
        k(  561) = (   0.1250000  -0.3750000  -0.1250000), wk =   0.0009766
        k(  562) = (   0.1250000  -0.3750000  -0.0625000), wk =   0.0009766
        k(  563) = (   0.1250000  -0.3125000  -0.0000000), wk =   0.0009766
        k(  564) = (   0.1250000  -0.3125000   0.0625000), wk =   0.0009766
        k(  565) = (   0.1250000  -0.3125000   0.1250000), wk =   0.0009766
        k(  566) = (   0.1249999  -0.3125000   0.1875000), wk =   0.0009766
        k(  567) = (   0.1249999  -0.3125000   0.2500000), wk =   0.0009766
        k(  568) = (   0.1249999  -0.3125000   0.3125000), wk =   0.0009766
        k(  569) = (   0.1249999  -0.3125000   0.3750000), wk =   0.0009766
        k(  570) = (   0.1249999  -0.3125000   0.4375000), wk =   0.0009766
        k(  571) = (   0.1250001  -0.3125000  -0.5000000), wk =   0.0009766
        k(  572) = (   0.1250001  -0.3125000  -0.4375000), wk =   0.0009766
        k(  573) = (   0.1250001  -0.3125000  -0.3750000), wk =   0.0009766
        k(  574) = (   0.1250001  -0.3125000  -0.3125000), wk =   0.0009766
        k(  575) = (   0.1250001  -0.3125000  -0.2500000), wk =   0.0009766
        k(  576) = (   0.1250001  -0.3125000  -0.1875000), wk =   0.0009766
        k(  577) = (   0.1250000  -0.3125000  -0.1250000), wk =   0.0009766
        k(  578) = (   0.1250000  -0.3125000  -0.0625000), wk =   0.0009766
        k(  579) = (   0.1250000  -0.2500000  -0.0000000), wk =   0.0009766
        k(  580) = (   0.1250000  -0.2500000   0.0625000), wk =   0.0009766
        k(  581) = (   0.1250000  -0.2500000   0.1250000), wk =   0.0009766
        k(  582) = (   0.1249999  -0.2500000   0.1875000), wk =   0.0009766
        k(  583) = (   0.1249999  -0.2500000   0.2500000), wk =   0.0009766
        k(  584) = (   0.1249999  -0.2500000   0.3125000), wk =   0.0009766
        k(  585) = (   0.1249999  -0.2500000   0.3750000), wk =   0.0009766
        k(  586) = (   0.1249999  -0.2500000   0.4375000), wk =   0.0009766
        k(  587) = (   0.1250001  -0.2500000  -0.5000000), wk =   0.0009766
        k(  588) = (   0.1250001  -0.2500000  -0.4375000), wk =   0.0009766
        k(  589) = (   0.1250001  -0.2500000  -0.3750000), wk =   0.0009766
        k(  590) = (   0.1250001  -0.2500000  -0.3125000), wk =   0.0009766
        k(  591) = (   0.1250001  -0.2500000  -0.2500000), wk =   0.0009766
        k(  592) = (   0.1250001  -0.2500000  -0.1875000), wk =   0.0009766
        k(  593) = (   0.1250000  -0.2500000  -0.1250000), wk =   0.0009766
        k(  594) = (   0.1250000  -0.2500000  -0.0625000), wk =   0.0009766
        k(  595) = (   0.1250000  -0.1875000  -0.0000000), wk =   0.0009766
        k(  596) = (   0.1250000  -0.1875000   0.0625000), wk =   0.0009766
        k(  597) = (   0.1250000  -0.1875000   0.1250000), wk =   0.0009766
        k(  598) = (   0.1249999  -0.1875000   0.1875000), wk =   0.0009766
        k(  599) = (   0.1249999  -0.1875000   0.2500000), wk =   0.0009766
        k(  600) = (   0.1249999  -0.1875000   0.3125000), wk =   0.0009766
        k(  601) = (   0.1249999  -0.1875000   0.3750000), wk =   0.0009766
        k(  602) = (   0.1249999  -0.1875000   0.4375000), wk =   0.0009766
        k(  603) = (   0.1250001  -0.1875000  -0.5000000), wk =   0.0009766
        k(  604) = (   0.1250001  -0.1875000  -0.4375000), wk =   0.0009766
        k(  605) = (   0.1250001  -0.1875000  -0.3750000), wk =   0.0009766
        k(  606) = (   0.1250001  -0.1875000  -0.3125000), wk =   0.0009766
        k(  607) = (   0.1250001  -0.1875000  -0.2500000), wk =   0.0009766
        k(  608) = (   0.1250001  -0.1875000  -0.1875000), wk =   0.0009766
        k(  609) = (   0.1250000  -0.1875000  -0.1250000), wk =   0.0009766
        k(  610) = (   0.1250000  -0.1875000  -0.0625000), wk =   0.0009766
        k(  611) = (   0.1250000  -0.1250000  -0.0000000), wk =   0.0009766
        k(  612) = (   0.1250000  -0.1250000   0.0625000), wk =   0.0009766
        k(  613) = (   0.1250000  -0.1250000   0.1250000), wk =   0.0009766
        k(  614) = (   0.1249999  -0.1250000   0.1875000), wk =   0.0009766
        k(  615) = (   0.1249999  -0.1250000   0.2500000), wk =   0.0009766
        k(  616) = (   0.1249999  -0.1250000   0.3125000), wk =   0.0009766
        k(  617) = (   0.1249999  -0.1250000   0.3750000), wk =   0.0009766
        k(  618) = (   0.1249999  -0.1250000   0.4375000), wk =   0.0009766
        k(  619) = (   0.1250001  -0.1250000  -0.5000000), wk =   0.0009766
        k(  620) = (   0.1250001  -0.1250000  -0.4375000), wk =   0.0009766
        k(  621) = (   0.1250001  -0.1250000  -0.3750000), wk =   0.0009766
        k(  622) = (   0.1250001  -0.1250000  -0.3125000), wk =   0.0009766
        k(  623) = (   0.1250001  -0.1250000  -0.2500000), wk =   0.0009766
        k(  624) = (   0.1250001  -0.1250000  -0.1875000), wk =   0.0009766
        k(  625) = (   0.1250000  -0.1250000  -0.1250000), wk =   0.0009766
        k(  626) = (   0.1250000  -0.1250000  -0.0625000), wk =   0.0009766
        k(  627) = (   0.1250000  -0.0625000  -0.0000000), wk =   0.0009766
        k(  628) = (   0.1250000  -0.0625000   0.0625000), wk =   0.0009766
        k(  629) = (   0.1250000  -0.0625000   0.1250000), wk =   0.0009766
        k(  630) = (   0.1249999  -0.0625000   0.1875000), wk =   0.0009766
        k(  631) = (   0.1249999  -0.0625000   0.2500000), wk =   0.0009766
        k(  632) = (   0.1249999  -0.0625000   0.3125000), wk =   0.0009766
        k(  633) = (   0.1249999  -0.0625000   0.3750000), wk =   0.0009766
        k(  634) = (   0.1249999  -0.0625000   0.4375000), wk =   0.0009766
        k(  635) = (   0.1250001  -0.0625000  -0.5000000), wk =   0.0009766
        k(  636) = (   0.1250001  -0.0625000  -0.4375000), wk =   0.0009766
        k(  637) = (   0.1250001  -0.0625000  -0.3750000), wk =   0.0009766
        k(  638) = (   0.1250001  -0.0625000  -0.3125000), wk =   0.0009766
        k(  639) = (   0.1250001  -0.0625000  -0.2500000), wk =   0.0009766
        k(  640) = (   0.1250001  -0.0625000  -0.1875000), wk =   0.0009766
        k(  641) = (   0.1250000  -0.0625000  -0.1250000), wk =   0.0009766
        k(  642) = (   0.1250000  -0.0625000  -0.0625000), wk =   0.0009766
        k(  643) = (   0.1875000  -0.0000000  -0.0000001), wk =   0.0009766
        k(  644) = (   0.1875000  -0.0000000   0.0624999), wk =   0.0009766
        k(  645) = (   0.1875000  -0.0000000   0.1249999), wk =   0.0009766
        k(  646) = (   0.1874999  -0.0000000   0.1874999), wk =   0.0009766
        k(  647) = (   0.1874999  -0.0000000   0.2499999), wk =   0.0009766
        k(  648) = (   0.1874999  -0.0000000   0.3124999), wk =   0.0009766
        k(  649) = (   0.1874999  -0.0000000   0.3749999), wk =   0.0009766
        k(  650) = (   0.1874999  -0.0000000   0.4374999), wk =   0.0009766
        k(  651) = (   0.1875001   0.0000000  -0.5000001), wk =   0.0009766
        k(  652) = (   0.1875001   0.0000000  -0.4375001), wk =   0.0009766
        k(  653) = (   0.1875001   0.0000000  -0.3750001), wk =   0.0009766
        k(  654) = (   0.1875001   0.0000000  -0.3125001), wk =   0.0009766
        k(  655) = (   0.1875001   0.0000000  -0.2500001), wk =   0.0009766
        k(  656) = (   0.1875001   0.0000000  -0.1875001), wk =   0.0009766
        k(  657) = (   0.1875000   0.0000000  -0.1250001), wk =   0.0009766
        k(  658) = (   0.1875000   0.0000000  -0.0625001), wk =   0.0009766
        k(  659) = (   0.1875000   0.0625000  -0.0000001), wk =   0.0009766
        k(  660) = (   0.1875000   0.0625000   0.0624999), wk =   0.0009766
        k(  661) = (   0.1875000   0.0625000   0.1249999), wk =   0.0009766
        k(  662) = (   0.1874999   0.0625000   0.1874999), wk =   0.0009766
        k(  663) = (   0.1874999   0.0625000   0.2499999), wk =   0.0009766
        k(  664) = (   0.1874999   0.0625000   0.3124999), wk =   0.0009766
        k(  665) = (   0.1874999   0.0625000   0.3749999), wk =   0.0009766
        k(  666) = (   0.1874999   0.0625000   0.4374999), wk =   0.0009766
        k(  667) = (   0.1875001   0.0625000  -0.5000001), wk =   0.0009766
        k(  668) = (   0.1875001   0.0625000  -0.4375001), wk =   0.0009766
        k(  669) = (   0.1875001   0.0625000  -0.3750001), wk =   0.0009766
        k(  670) = (   0.1875001   0.0625000  -0.3125001), wk =   0.0009766
        k(  671) = (   0.1875001   0.0625000  -0.2500001), wk =   0.0009766
        k(  672) = (   0.1875001   0.0625000  -0.1875001), wk =   0.0009766
        k(  673) = (   0.1875000   0.0625000  -0.1250001), wk =   0.0009766
        k(  674) = (   0.1875000   0.0625000  -0.0625001), wk =   0.0009766
        k(  675) = (   0.1875000   0.1250000  -0.0000001), wk =   0.0009766
        k(  676) = (   0.1875000   0.1250000   0.0624999), wk =   0.0009766
        k(  677) = (   0.1875000   0.1250000   0.1249999), wk =   0.0009766
        k(  678) = (   0.1874999   0.1250000   0.1874999), wk =   0.0009766
        k(  679) = (   0.1874999   0.1250000   0.2499999), wk =   0.0009766
        k(  680) = (   0.1874999   0.1250000   0.3124999), wk =   0.0009766
        k(  681) = (   0.1874999   0.1250000   0.3749999), wk =   0.0009766
        k(  682) = (   0.1874999   0.1250000   0.4374999), wk =   0.0009766
        k(  683) = (   0.1875001   0.1250000  -0.5000001), wk =   0.0009766
        k(  684) = (   0.1875001   0.1250000  -0.4375001), wk =   0.0009766
        k(  685) = (   0.1875001   0.1250000  -0.3750001), wk =   0.0009766
        k(  686) = (   0.1875001   0.1250000  -0.3125001), wk =   0.0009766
        k(  687) = (   0.1875001   0.1250000  -0.2500001), wk =   0.0009766
        k(  688) = (   0.1875001   0.1250000  -0.1875001), wk =   0.0009766
        k(  689) = (   0.1875000   0.1250000  -0.1250001), wk =   0.0009766
        k(  690) = (   0.1875000   0.1250000  -0.0625001), wk =   0.0009766
        k(  691) = (   0.1875000   0.1875000  -0.0000001), wk =   0.0009766
        k(  692) = (   0.1875000   0.1875000   0.0624999), wk =   0.0009766
        k(  693) = (   0.1875000   0.1875000   0.1249999), wk =   0.0009766
        k(  694) = (   0.1874999   0.1875000   0.1874999), wk =   0.0009766
        k(  695) = (   0.1874999   0.1875000   0.2499999), wk =   0.0009766
        k(  696) = (   0.1874999   0.1875000   0.3124999), wk =   0.0009766
        k(  697) = (   0.1874999   0.1875000   0.3749999), wk =   0.0009766
        k(  698) = (   0.1874999   0.1875000   0.4374999), wk =   0.0009766
        k(  699) = (   0.1875001   0.1875000  -0.5000001), wk =   0.0009766
        k(  700) = (   0.1875001   0.1875000  -0.4375001), wk =   0.0009766
        k(  701) = (   0.1875001   0.1875000  -0.3750001), wk =   0.0009766
        k(  702) = (   0.1875001   0.1875000  -0.3125001), wk =   0.0009766
        k(  703) = (   0.1875001   0.1875000  -0.2500001), wk =   0.0009766
        k(  704) = (   0.1875001   0.1875000  -0.1875001), wk =   0.0009766
        k(  705) = (   0.1875000   0.1875000  -0.1250001), wk =   0.0009766
        k(  706) = (   0.1875000   0.1875000  -0.0625001), wk =   0.0009766
        k(  707) = (   0.1875000   0.2500000  -0.0000001), wk =   0.0009766
        k(  708) = (   0.1875000   0.2500000   0.0624999), wk =   0.0009766
        k(  709) = (   0.1875000   0.2500000   0.1249999), wk =   0.0009766
        k(  710) = (   0.1874999   0.2500000   0.1874999), wk =   0.0009766
        k(  711) = (   0.1874999   0.2500000   0.2499999), wk =   0.0009766
        k(  712) = (   0.1874999   0.2500000   0.3124999), wk =   0.0009766
        k(  713) = (   0.1874999   0.2500000   0.3749999), wk =   0.0009766
        k(  714) = (   0.1874999   0.2500000   0.4374999), wk =   0.0009766
        k(  715) = (   0.1875001   0.2500000  -0.5000001), wk =   0.0009766
        k(  716) = (   0.1875001   0.2500000  -0.4375001), wk =   0.0009766
        k(  717) = (   0.1875001   0.2500000  -0.3750001), wk =   0.0009766
        k(  718) = (   0.1875001   0.2500000  -0.3125001), wk =   0.0009766
        k(  719) = (   0.1875001   0.2500000  -0.2500001), wk =   0.0009766
        k(  720) = (   0.1875001   0.2500000  -0.1875001), wk =   0.0009766
        k(  721) = (   0.1875000   0.2500000  -0.1250001), wk =   0.0009766
        k(  722) = (   0.1875000   0.2500000  -0.0625001), wk =   0.0009766
        k(  723) = (   0.1875000   0.3125000  -0.0000001), wk =   0.0009766
        k(  724) = (   0.1875000   0.3125000   0.0624999), wk =   0.0009766
        k(  725) = (   0.1875000   0.3125000   0.1249999), wk =   0.0009766
        k(  726) = (   0.1874999   0.3125000   0.1874999), wk =   0.0009766
        k(  727) = (   0.1874999   0.3125000   0.2499999), wk =   0.0009766
        k(  728) = (   0.1874999   0.3125000   0.3124999), wk =   0.0009766
        k(  729) = (   0.1874999   0.3125000   0.3749999), wk =   0.0009766
        k(  730) = (   0.1874999   0.3125000   0.4374999), wk =   0.0009766
        k(  731) = (   0.1875001   0.3125000  -0.5000001), wk =   0.0009766
        k(  732) = (   0.1875001   0.3125000  -0.4375001), wk =   0.0009766
        k(  733) = (   0.1875001   0.3125000  -0.3750001), wk =   0.0009766
        k(  734) = (   0.1875001   0.3125000  -0.3125001), wk =   0.0009766
        k(  735) = (   0.1875001   0.3125000  -0.2500001), wk =   0.0009766
        k(  736) = (   0.1875001   0.3125000  -0.1875001), wk =   0.0009766
        k(  737) = (   0.1875000   0.3125000  -0.1250001), wk =   0.0009766
        k(  738) = (   0.1875000   0.3125000  -0.0625001), wk =   0.0009766
        k(  739) = (   0.1875000   0.3750000  -0.0000001), wk =   0.0009766
        k(  740) = (   0.1875000   0.3750000   0.0624999), wk =   0.0009766
        k(  741) = (   0.1875000   0.3750000   0.1249999), wk =   0.0009766
        k(  742) = (   0.1874999   0.3750000   0.1874999), wk =   0.0009766
        k(  743) = (   0.1874999   0.3750000   0.2499999), wk =   0.0009766
        k(  744) = (   0.1874999   0.3750000   0.3124999), wk =   0.0009766
        k(  745) = (   0.1874999   0.3750000   0.3749999), wk =   0.0009766
        k(  746) = (   0.1874999   0.3750000   0.4374999), wk =   0.0009766
        k(  747) = (   0.1875001   0.3750000  -0.5000001), wk =   0.0009766
        k(  748) = (   0.1875001   0.3750000  -0.4375001), wk =   0.0009766
        k(  749) = (   0.1875001   0.3750000  -0.3750001), wk =   0.0009766
        k(  750) = (   0.1875001   0.3750000  -0.3125001), wk =   0.0009766
        k(  751) = (   0.1875001   0.3750000  -0.2500001), wk =   0.0009766
        k(  752) = (   0.1875001   0.3750000  -0.1875001), wk =   0.0009766
        k(  753) = (   0.1875000   0.3750000  -0.1250001), wk =   0.0009766
        k(  754) = (   0.1875000   0.3750000  -0.0625001), wk =   0.0009766
        k(  755) = (   0.1875000   0.4375000  -0.0000001), wk =   0.0009766
        k(  756) = (   0.1875000   0.4375000   0.0624999), wk =   0.0009766
        k(  757) = (   0.1875000   0.4375000   0.1249999), wk =   0.0009766
        k(  758) = (   0.1874999   0.4375000   0.1874999), wk =   0.0009766
        k(  759) = (   0.1874999   0.4375000   0.2499999), wk =   0.0009766
        k(  760) = (   0.1874999   0.4375000   0.3124999), wk =   0.0009766
        k(  761) = (   0.1874999   0.4375000   0.3749999), wk =   0.0009766
        k(  762) = (   0.1874999   0.4375000   0.4374999), wk =   0.0009766
        k(  763) = (   0.1875001   0.4375000  -0.5000001), wk =   0.0009766
        k(  764) = (   0.1875001   0.4375000  -0.4375001), wk =   0.0009766
        k(  765) = (   0.1875001   0.4375000  -0.3750001), wk =   0.0009766
        k(  766) = (   0.1875001   0.4375000  -0.3125001), wk =   0.0009766
        k(  767) = (   0.1875001   0.4375000  -0.2500001), wk =   0.0009766
        k(  768) = (   0.1875001   0.4375000  -0.1875001), wk =   0.0009766
        k(  769) = (   0.1875000   0.4375000  -0.1250001), wk =   0.0009766
        k(  770) = (   0.1875000   0.4375000  -0.0625001), wk =   0.0009766
        k(  771) = (   0.1875000  -0.5000000  -0.0000000), wk =   0.0009766
        k(  772) = (   0.1875000  -0.5000000   0.0625000), wk =   0.0009766
        k(  773) = (   0.1875000  -0.5000000   0.1250000), wk =   0.0009766
        k(  774) = (   0.1874999  -0.5000000   0.1875000), wk =   0.0009766
        k(  775) = (   0.1874999  -0.5000000   0.2500000), wk =   0.0009766
        k(  776) = (   0.1874999  -0.5000000   0.3125000), wk =   0.0009766
        k(  777) = (   0.1874999  -0.5000000   0.3750000), wk =   0.0009766
        k(  778) = (   0.1874999  -0.5000000   0.4375000), wk =   0.0009766
        k(  779) = (   0.1875001  -0.5000000  -0.5000000), wk =   0.0009766
        k(  780) = (   0.1875001  -0.5000000  -0.4375000), wk =   0.0009766
        k(  781) = (   0.1875001  -0.5000000  -0.3750000), wk =   0.0009766
        k(  782) = (   0.1875001  -0.5000000  -0.3125000), wk =   0.0009766
        k(  783) = (   0.1875001  -0.5000000  -0.2500000), wk =   0.0009766
        k(  784) = (   0.1875001  -0.5000000  -0.1875000), wk =   0.0009766
        k(  785) = (   0.1875000  -0.5000000  -0.1250000), wk =   0.0009766
        k(  786) = (   0.1875000  -0.5000000  -0.0625000), wk =   0.0009766
        k(  787) = (   0.1875000  -0.4375000  -0.0000000), wk =   0.0009766
        k(  788) = (   0.1875000  -0.4375000   0.0625000), wk =   0.0009766
        k(  789) = (   0.1875000  -0.4375000   0.1250000), wk =   0.0009766
        k(  790) = (   0.1874999  -0.4375000   0.1875000), wk =   0.0009766
        k(  791) = (   0.1874999  -0.4375000   0.2500000), wk =   0.0009766
        k(  792) = (   0.1874999  -0.4375000   0.3125000), wk =   0.0009766
        k(  793) = (   0.1874999  -0.4375000   0.3750000), wk =   0.0009766
        k(  794) = (   0.1874999  -0.4375000   0.4375000), wk =   0.0009766
        k(  795) = (   0.1875001  -0.4375000  -0.5000000), wk =   0.0009766
        k(  796) = (   0.1875001  -0.4375000  -0.4375000), wk =   0.0009766
        k(  797) = (   0.1875001  -0.4375000  -0.3750000), wk =   0.0009766
        k(  798) = (   0.1875001  -0.4375000  -0.3125000), wk =   0.0009766
        k(  799) = (   0.1875001  -0.4375000  -0.2500000), wk =   0.0009766
        k(  800) = (   0.1875001  -0.4375000  -0.1875000), wk =   0.0009766
        k(  801) = (   0.1875000  -0.4375000  -0.1250000), wk =   0.0009766
        k(  802) = (   0.1875000  -0.4375000  -0.0625000), wk =   0.0009766
        k(  803) = (   0.1875000  -0.3750000  -0.0000000), wk =   0.0009766
        k(  804) = (   0.1875000  -0.3750000   0.0625000), wk =   0.0009766
        k(  805) = (   0.1875000  -0.3750000   0.1250000), wk =   0.0009766
        k(  806) = (   0.1874999  -0.3750000   0.1875000), wk =   0.0009766
        k(  807) = (   0.1874999  -0.3750000   0.2500000), wk =   0.0009766
        k(  808) = (   0.1874999  -0.3750000   0.3125000), wk =   0.0009766
        k(  809) = (   0.1874999  -0.3750000   0.3750000), wk =   0.0009766
        k(  810) = (   0.1874999  -0.3750000   0.4375000), wk =   0.0009766
        k(  811) = (   0.1875001  -0.3750000  -0.5000000), wk =   0.0009766
        k(  812) = (   0.1875001  -0.3750000  -0.4375000), wk =   0.0009766
        k(  813) = (   0.1875001  -0.3750000  -0.3750000), wk =   0.0009766
        k(  814) = (   0.1875001  -0.3750000  -0.3125000), wk =   0.0009766
        k(  815) = (   0.1875001  -0.3750000  -0.2500000), wk =   0.0009766
        k(  816) = (   0.1875001  -0.3750000  -0.1875000), wk =   0.0009766
        k(  817) = (   0.1875000  -0.3750000  -0.1250000), wk =   0.0009766
        k(  818) = (   0.1875000  -0.3750000  -0.0625000), wk =   0.0009766
        k(  819) = (   0.1875000  -0.3125000  -0.0000000), wk =   0.0009766
        k(  820) = (   0.1875000  -0.3125000   0.0625000), wk =   0.0009766
        k(  821) = (   0.1875000  -0.3125000   0.1250000), wk =   0.0009766
        k(  822) = (   0.1874999  -0.3125000   0.1875000), wk =   0.0009766
        k(  823) = (   0.1874999  -0.3125000   0.2500000), wk =   0.0009766
        k(  824) = (   0.1874999  -0.3125000   0.3125000), wk =   0.0009766
        k(  825) = (   0.1874999  -0.3125000   0.3750000), wk =   0.0009766
        k(  826) = (   0.1874999  -0.3125000   0.4375000), wk =   0.0009766
        k(  827) = (   0.1875001  -0.3125000  -0.5000000), wk =   0.0009766
        k(  828) = (   0.1875001  -0.3125000  -0.4375000), wk =   0.0009766
        k(  829) = (   0.1875001  -0.3125000  -0.3750000), wk =   0.0009766
        k(  830) = (   0.1875001  -0.3125000  -0.3125000), wk =   0.0009766
        k(  831) = (   0.1875001  -0.3125000  -0.2500000), wk =   0.0009766
        k(  832) = (   0.1875001  -0.3125000  -0.1875000), wk =   0.0009766
        k(  833) = (   0.1875000  -0.3125000  -0.1250000), wk =   0.0009766
        k(  834) = (   0.1875000  -0.3125000  -0.0625000), wk =   0.0009766
        k(  835) = (   0.1875000  -0.2500000  -0.0000000), wk =   0.0009766
        k(  836) = (   0.1875000  -0.2500000   0.0625000), wk =   0.0009766
        k(  837) = (   0.1875000  -0.2500000   0.1250000), wk =   0.0009766
        k(  838) = (   0.1874999  -0.2500000   0.1875000), wk =   0.0009766
        k(  839) = (   0.1874999  -0.2500000   0.2500000), wk =   0.0009766
        k(  840) = (   0.1874999  -0.2500000   0.3125000), wk =   0.0009766
        k(  841) = (   0.1874999  -0.2500000   0.3750000), wk =   0.0009766
        k(  842) = (   0.1874999  -0.2500000   0.4375000), wk =   0.0009766
        k(  843) = (   0.1875001  -0.2500000  -0.5000000), wk =   0.0009766
        k(  844) = (   0.1875001  -0.2500000  -0.4375000), wk =   0.0009766
        k(  845) = (   0.1875001  -0.2500000  -0.3750000), wk =   0.0009766
        k(  846) = (   0.1875001  -0.2500000  -0.3125000), wk =   0.0009766
        k(  847) = (   0.1875001  -0.2500000  -0.2500000), wk =   0.0009766
        k(  848) = (   0.1875001  -0.2500000  -0.1875000), wk =   0.0009766
        k(  849) = (   0.1875000  -0.2500000  -0.1250000), wk =   0.0009766
        k(  850) = (   0.1875000  -0.2500000  -0.0625000), wk =   0.0009766
        k(  851) = (   0.1875000  -0.1875000  -0.0000000), wk =   0.0009766
        k(  852) = (   0.1875000  -0.1875000   0.0625000), wk =   0.0009766
        k(  853) = (   0.1875000  -0.1875000   0.1250000), wk =   0.0009766
        k(  854) = (   0.1874999  -0.1875000   0.1875000), wk =   0.0009766
        k(  855) = (   0.1874999  -0.1875000   0.2500000), wk =   0.0009766
        k(  856) = (   0.1874999  -0.1875000   0.3125000), wk =   0.0009766
        k(  857) = (   0.1874999  -0.1875000   0.3750000), wk =   0.0009766
        k(  858) = (   0.1874999  -0.1875000   0.4375000), wk =   0.0009766
        k(  859) = (   0.1875001  -0.1875000  -0.5000000), wk =   0.0009766
        k(  860) = (   0.1875001  -0.1875000  -0.4375000), wk =   0.0009766
        k(  861) = (   0.1875001  -0.1875000  -0.3750000), wk =   0.0009766
        k(  862) = (   0.1875001  -0.1875000  -0.3125000), wk =   0.0009766
        k(  863) = (   0.1875001  -0.1875000  -0.2500000), wk =   0.0009766
        k(  864) = (   0.1875001  -0.1875000  -0.1875000), wk =   0.0009766
        k(  865) = (   0.1875000  -0.1875000  -0.1250000), wk =   0.0009766
        k(  866) = (   0.1875000  -0.1875000  -0.0625000), wk =   0.0009766
        k(  867) = (   0.1875000  -0.1250000  -0.0000000), wk =   0.0009766
        k(  868) = (   0.1875000  -0.1250000   0.0625000), wk =   0.0009766
        k(  869) = (   0.1875000  -0.1250000   0.1250000), wk =   0.0009766
        k(  870) = (   0.1874999  -0.1250000   0.1875000), wk =   0.0009766
        k(  871) = (   0.1874999  -0.1250000   0.2500000), wk =   0.0009766
        k(  872) = (   0.1874999  -0.1250000   0.3125000), wk =   0.0009766
        k(  873) = (   0.1874999  -0.1250000   0.3750000), wk =   0.0009766
        k(  874) = (   0.1874999  -0.1250000   0.4375000), wk =   0.0009766
        k(  875) = (   0.1875001  -0.1250000  -0.5000000), wk =   0.0009766
        k(  876) = (   0.1875001  -0.1250000  -0.4375000), wk =   0.0009766
        k(  877) = (   0.1875001  -0.1250000  -0.3750000), wk =   0.0009766
        k(  878) = (   0.1875001  -0.1250000  -0.3125000), wk =   0.0009766
        k(  879) = (   0.1875001  -0.1250000  -0.2500000), wk =   0.0009766
        k(  880) = (   0.1875001  -0.1250000  -0.1875000), wk =   0.0009766
        k(  881) = (   0.1875000  -0.1250000  -0.1250000), wk =   0.0009766
        k(  882) = (   0.1875000  -0.1250000  -0.0625000), wk =   0.0009766
        k(  883) = (   0.1875000  -0.0625000  -0.0000001), wk =   0.0009766
        k(  884) = (   0.1875000  -0.0625000   0.0624999), wk =   0.0009766
        k(  885) = (   0.1875000  -0.0625000   0.1249999), wk =   0.0009766
        k(  886) = (   0.1874999  -0.0625000   0.1874999), wk =   0.0009766
        k(  887) = (   0.1874999  -0.0625000   0.2499999), wk =   0.0009766
        k(  888) = (   0.1874999  -0.0625000   0.3124999), wk =   0.0009766
        k(  889) = (   0.1874999  -0.0625000   0.3749999), wk =   0.0009766
        k(  890) = (   0.1874999  -0.0625000   0.4374999), wk =   0.0009766
        k(  891) = (   0.1875001  -0.0625000  -0.5000001), wk =   0.0009766
        k(  892) = (   0.1875001  -0.0625000  -0.4375001), wk =   0.0009766
        k(  893) = (   0.1875001  -0.0625000  -0.3750001), wk =   0.0009766
        k(  894) = (   0.1875001  -0.0625000  -0.3125001), wk =   0.0009766
        k(  895) = (   0.1875001  -0.0625000  -0.2500001), wk =   0.0009766
        k(  896) = (   0.1875001  -0.0625000  -0.1875001), wk =   0.0009766
        k(  897) = (   0.1875000  -0.0625000  -0.1250001), wk =   0.0009766
        k(  898) = (   0.1875000  -0.0625000  -0.0625001), wk =   0.0009766
        k(  899) = (   0.2500000  -0.0000000  -0.0000001), wk =   0.0009766
        k(  900) = (   0.2500000  -0.0000000   0.0624999), wk =   0.0009766
        k(  901) = (   0.2500000  -0.0000000   0.1249999), wk =   0.0009766
        k(  902) = (   0.2499999  -0.0000000   0.1874999), wk =   0.0009766
        k(  903) = (   0.2499999  -0.0000000   0.2499999), wk =   0.0009766
        k(  904) = (   0.2499999  -0.0000000   0.3124999), wk =   0.0009766
        k(  905) = (   0.2499999  -0.0000000   0.3749999), wk =   0.0009766
        k(  906) = (   0.2499999  -0.0000000   0.4374999), wk =   0.0009766
        k(  907) = (   0.2500001   0.0000000  -0.5000001), wk =   0.0009766
        k(  908) = (   0.2500001   0.0000000  -0.4375001), wk =   0.0009766
        k(  909) = (   0.2500001   0.0000000  -0.3750001), wk =   0.0009766
        k(  910) = (   0.2500001   0.0000000  -0.3125001), wk =   0.0009766
        k(  911) = (   0.2500001   0.0000000  -0.2500001), wk =   0.0009766
        k(  912) = (   0.2500001   0.0000000  -0.1875001), wk =   0.0009766
        k(  913) = (   0.2500000   0.0000000  -0.1250001), wk =   0.0009766
        k(  914) = (   0.2500000   0.0000000  -0.0625001), wk =   0.0009766
        k(  915) = (   0.2500000   0.0625000  -0.0000001), wk =   0.0009766
        k(  916) = (   0.2500000   0.0625000   0.0624999), wk =   0.0009766
        k(  917) = (   0.2500000   0.0625000   0.1249999), wk =   0.0009766
        k(  918) = (   0.2499999   0.0625000   0.1874999), wk =   0.0009766
        k(  919) = (   0.2499999   0.0625000   0.2499999), wk =   0.0009766
        k(  920) = (   0.2499999   0.0625000   0.3124999), wk =   0.0009766
        k(  921) = (   0.2499999   0.0625000   0.3749999), wk =   0.0009766
        k(  922) = (   0.2499999   0.0625000   0.4374999), wk =   0.0009766
        k(  923) = (   0.2500001   0.0625000  -0.5000001), wk =   0.0009766
        k(  924) = (   0.2500001   0.0625000  -0.4375001), wk =   0.0009766
        k(  925) = (   0.2500001   0.0625000  -0.3750001), wk =   0.0009766
        k(  926) = (   0.2500001   0.0625000  -0.3125001), wk =   0.0009766
        k(  927) = (   0.2500001   0.0625000  -0.2500001), wk =   0.0009766
        k(  928) = (   0.2500001   0.0625000  -0.1875001), wk =   0.0009766
        k(  929) = (   0.2500000   0.0625000  -0.1250001), wk =   0.0009766
        k(  930) = (   0.2500000   0.0625000  -0.0625001), wk =   0.0009766
        k(  931) = (   0.2500000   0.1250000  -0.0000001), wk =   0.0009766
        k(  932) = (   0.2500000   0.1250000   0.0624999), wk =   0.0009766
        k(  933) = (   0.2500000   0.1250000   0.1249999), wk =   0.0009766
        k(  934) = (   0.2499999   0.1250000   0.1874999), wk =   0.0009766
        k(  935) = (   0.2499999   0.1250000   0.2499999), wk =   0.0009766
        k(  936) = (   0.2499999   0.1250000   0.3124999), wk =   0.0009766
        k(  937) = (   0.2499999   0.1250000   0.3749999), wk =   0.0009766
        k(  938) = (   0.2499999   0.1250000   0.4374999), wk =   0.0009766
        k(  939) = (   0.2500001   0.1250000  -0.5000001), wk =   0.0009766
        k(  940) = (   0.2500001   0.1250000  -0.4375001), wk =   0.0009766
        k(  941) = (   0.2500001   0.1250000  -0.3750001), wk =   0.0009766
        k(  942) = (   0.2500001   0.1250000  -0.3125001), wk =   0.0009766
        k(  943) = (   0.2500001   0.1250000  -0.2500001), wk =   0.0009766
        k(  944) = (   0.2500001   0.1250000  -0.1875001), wk =   0.0009766
        k(  945) = (   0.2500000   0.1250000  -0.1250001), wk =   0.0009766
        k(  946) = (   0.2500000   0.1250000  -0.0625001), wk =   0.0009766
        k(  947) = (   0.2500000   0.1875000  -0.0000001), wk =   0.0009766
        k(  948) = (   0.2500000   0.1875000   0.0624999), wk =   0.0009766
        k(  949) = (   0.2500000   0.1875000   0.1249999), wk =   0.0009766
        k(  950) = (   0.2499999   0.1875000   0.1874999), wk =   0.0009766
        k(  951) = (   0.2499999   0.1875000   0.2499999), wk =   0.0009766
        k(  952) = (   0.2499999   0.1875000   0.3124999), wk =   0.0009766
        k(  953) = (   0.2499999   0.1875000   0.3749999), wk =   0.0009766
        k(  954) = (   0.2499999   0.1875000   0.4374999), wk =   0.0009766
        k(  955) = (   0.2500001   0.1875000  -0.5000001), wk =   0.0009766
        k(  956) = (   0.2500001   0.1875000  -0.4375001), wk =   0.0009766
        k(  957) = (   0.2500001   0.1875000  -0.3750001), wk =   0.0009766
        k(  958) = (   0.2500001   0.1875000  -0.3125001), wk =   0.0009766
        k(  959) = (   0.2500001   0.1875000  -0.2500001), wk =   0.0009766
        k(  960) = (   0.2500001   0.1875000  -0.1875001), wk =   0.0009766
        k(  961) = (   0.2500000   0.1875000  -0.1250001), wk =   0.0009766
        k(  962) = (   0.2500000   0.1875000  -0.0625001), wk =   0.0009766
        k(  963) = (   0.2500000   0.2500000  -0.0000001), wk =   0.0009766
        k(  964) = (   0.2500000   0.2500000   0.0624999), wk =   0.0009766
        k(  965) = (   0.2500000   0.2500000   0.1249999), wk =   0.0009766
        k(  966) = (   0.2499999   0.2500000   0.1874999), wk =   0.0009766
[...]

     occupation numbers 
     1.0000   1.0000   1.0000   1.0000   1.0000   1.0000   1.0000   1.0000
     1.0000   1.0000   1.0000  -0.0262  -0.0000  -0.0000  -0.0000

          k =-0.5000 0.4375 0.1250 (  4128 PWs)   bands (ev):

   -28.7383  -9.4463  -9.4041  -8.9550   1.1645   4.3425   4.5995   6.6504
     9.5793   9.6084  10.6612  14.5101  15.6183  16.9082  17.6295

     occupation numbers 
     1.0000   1.0000   1.0000   1.0000   1.0000   1.0000   1.0000   1.0000
     1.0000   1.0000   1.0000  -0.0000  -0.0000  -0.0000  -0.0000

          k =-0.5000 0.4375 0.1875 (  4126 PWs)   bands (ev):

   -28.7343  -9.4264  -9.3884  -9.0314   1.3736   4.3206   4.5422   7.0044
     8.5237   9.3830  10.0938  15.6674  16.8383  17.2747  17.7154

     occupation numbers 
     1.0000   1.0000   1.0000   1.0000   1.0000   1.0000   1.0000   1.0000
     1.0000   1.0000   1.0000  -0.0000  -0.0000  -0.0000  -0.0000

          k =-0.5000 0.4375 0.2500 (  4122 PWs)   bands (ev):

   -28.7297  -9.4029  -9.3698  -9.1195   1.6643   4.2839   4.4674   7.4617
     7.4791   9.1841   9.6466  16.8603  17.5730  17.8444  17.9922

     occupation numbers 
     1.0000   1.0000   1.0000   1.0000   1.0000   1.0000   1.0000   1.0000
     1.0000   1.0000   1.0000  -0.0000  -0.0000  -0.0000  -0.0000

          k =-0.5000 0.4375 0.3125 (  4114 PWs)   bands (ev):

   -28.7250  -9.3790  -9.3510  -9.2056   2.0320   4.2382   4.3837   6.5126
     7.9696   9.0137   9.3181  17.7434  17.9869  18.0158  18.8767

     occupation numbers 
     1.0000   1.0000   1.0000   1.0000   1.0000   1.0000   1.0000   1.0000
     1.0000   1.0000   1.0000  -0.0000  -0.0000  -0.0000  -0.0000

          k =-0.5000 0.4375 0.3750 (  4130 PWs)   bands (ev):

   -28.7210  -9.3587  -9.3351  -9.2771   2.4638   4.1939   4.3012   5.6541
     8.4502   8.8887   9.0985  17.8429  18.0496  18.9550  19.1825

     occupation numbers 
     1.0000   1.0000   1.0000   1.0000   1.0000   1.0000   1.0000   1.0000
     1.0000   1.0000   1.0000  -0.0000  -0.0000  -0.0000  -0.0000

          k =-0.5000 0.4375 0.4375 (  4136 PWs)   bands (ev):

   -28.7183  -9.3450  -9.3271  -9.3213   2.9124   4.1619   4.2190   4.9729
     8.7744   8.8448   8.9741  17.8941  17.9913  18.8945  19.4483

     occupation numbers 
     1.0000   1.0000   1.0000   1.0000   1.0000   1.0000   1.0000   1.0000
     1.0000   1.0000   1.0000  -0.0000  -0.0000  -0.0000  -0.0000

          k =-0.5000 0.4375-0.5000 (  4136 PWs)   bands (ev):

   -28.7174  -9.3411  -9.3402  -9.3200   3.1647   4.1484   4.1503   4.6845
     8.7764   8.9341   8.9508  17.8819  17.9549  18.8015  19.5127

     occupation numbers 
     1.0000   1.0000   1.0000   1.0000   1.0000   1.0000   1.0000   1.0000
     1.0000   1.0000   1.0000  -0.0000  -0.0000  -0.0000  -0.0000

          k =-0.5000 0.4375-0.4375 (  4136 PWs)   bands (ev):

   -28.7183  -9.3450  -9.3271  -9.3213   2.9124   4.1619   4.2190   4.9729
     8.7744   8.8448   8.9741  17.8941  17.9913  18.8946  19.4478

     occupation numbers 
     1.0000   1.0000   1.0000   1.0000   1.0000   1.0000   1.0000   1.0000
     1.0000   1.0000   1.0000  -0.0000  -0.0000  -0.0000  -0.0000

          k =-0.5000 0.4375-0.3750 (  4130 PWs)   bands (ev):

   -28.7210  -9.3587  -9.3351  -9.2771   2.4638   4.1939   4.3012   5.6541
     8.4502   8.8887   9.0985  17.8429  18.0496  18.9550  19.1837

     occupation numbers 
     1.0000   1.0000   1.0000   1.0000   1.0000   1.0000   1.0000   1.0000
     1.0000   1.0000   1.0000  -0.0000  -0.0000  -0.0000  -0.0000

          k =-0.5000 0.4375-0.3125 (  4114 PWs)   bands (ev):

   -28.7250  -9.3790  -9.3510  -9.2056   2.0320   4.2382   4.3837   6.5126
     7.9697   9.0137   9.3181  17.7434  17.9869  18.0158  18.8766

     occupation numbers 
     1.0000   1.0000   1.0000   1.0000   1.0000   1.0000   1.0000   1.0000
     1.0000   1.0000   1.0000  -0.0000  -0.0000  -0.0000  -0.0000

          k =-0.5000 0.4375-0.2500 (  4122 PWs)   bands (ev):

   -28.7297  -9.4029  -9.3698  -9.1195   1.6643   4.2839   4.4674   7.4617
     7.4791   9.1841   9.6466  16.8603  17.5730  17.8444  17.9922

     occupation numbers 
     1.0000   1.0000   1.0000   1.0000   1.0000   1.0000   1.0000   1.0000
     1.0000   1.0000   1.0000  -0.0000  -0.0000  -0.0000  -0.0000

          k =-0.5000 0.4375-0.1875 (  4126 PWs)   bands (ev):

   -28.7343  -9.4264  -9.3884  -9.0314   1.3736   4.3206   4.5422   7.0044
     8.5237   9.3830  10.0938  15.6674  16.8383  17.2747  17.7154

     occupation numbers 
     1.0000   1.0000   1.0000   1.0000   1.0000   1.0000   1.0000   1.0000
     1.0000   1.0000   1.0000  -0.0000  -0.0000  -0.0000  -0.0000

          k =-0.5000 0.4375-0.1250 (  4128 PWs)   bands (ev):

   -28.7383  -9.4463  -9.4041  -8.9550   1.1645   4.3425   4.5995   6.6504
     9.5793   9.6084  10.6612  14.5101  15.6183  16.9082  17.6295

     occupation numbers 
     1.0000   1.0000   1.0000   1.0000   1.0000   1.0000   1.0000   1.0000
     1.0000   1.0000   1.0000  -0.0000  -0.0000  -0.0000  -0.0000

          k =-0.5000 0.4375-0.0625 (  4126 PWs)   bands (ev):

   -28.7409  -9.4595  -9.4146  -8.9031   1.0385   4.3509   4.6348   6.4299
     9.7282  10.6063  11.3600  13.4081  14.5528  16.6145  17.5789

     occupation numbers 
     1.0000   1.0000   1.0000   1.0000   1.0000   1.0000   1.0000   1.0000
     1.0000   1.0000   1.0000  -0.0262  -0.0000  -0.0000  -0.0000

          k =-0.5000-0.5000 0.0000 (  4116 PWs)   bands (ev):

   -28.7408  -9.4589  -9.4369  -8.8825   1.0264   4.5416   4.5471   6.1870
     9.7286  11.1869  11.9807  12.8427  13.6622  17.2142  17.5002

     occupation numbers 
     1.0000   1.0000   1.0000   1.0000   1.0000   1.0000   1.0000   1.0000
     1.0000   1.0000   1.0000   1.0307  -0.0095  -0.0000  -0.0000

          k =-0.5000-0.5000 0.0625 (  4124 PWs)   bands (ev):

   -28.7399  -9.4544  -9.4331  -8.9008   1.0702   4.5274   4.5345   6.2708
     9.6828  10.9441  11.0103  13.8618  14.0206  17.3441  17.5140

     occupation numbers 
     1.0000   1.0000   1.0000   1.0000   1.0000   1.0000   1.0000   1.0000
     1.0000   1.0000   1.0000  -0.0005  -0.0000  -0.0000  -0.0000

          k =-0.5000-0.5000 0.1250 (  4136 PWs)   bands (ev):

   -28.7373  -9.4413  -9.4224  -8.9524   1.2016   4.4862   4.4970   6.5149
     9.5613   9.7722  10.4580  14.8487  15.2357  17.5538  17.8270

     occupation numbers 
     1.0000   1.0000   1.0000   1.0000   1.0000   1.0000   1.0000   1.0000
     1.0000   1.0000   1.0000  -0.0000  -0.0000  -0.0000  -0.0000

          k =-0.5000-0.5000 0.1875 (  4120 PWs)   bands (ev):

   -28.7333  -9.4217  -9.4062  -9.0284   1.4210   4.4227   4.4370   6.8975
     8.5868   9.4007   9.9733  15.8852  16.6079  17.6149  17.8801

     occupation numbers 
     1.0000   1.0000   1.0000   1.0000   1.0000   1.0000   1.0000   1.0000
     1.0000   1.0000   1.0000  -0.0000  -0.0000  -0.0000  -0.0000

          k =-0.5000-0.5000 0.2500 (  4120 PWs)   bands (ev):

   -28.7287  -9.3983  -9.3870  -9.1162   1.7284   4.3453   4.3602   7.3812
     7.4770   9.2379   9.5707  17.0103  17.6894  17.8685  17.9408

     occupation numbers 
     1.0000   1.0000   1.0000   1.0000   1.0000   1.0000   1.0000   1.0000
     1.0000   1.0000   1.0000  -0.0000  -0.0000  -0.0000  -0.0000

          k =-0.5000-0.5000 0.3125 (  4120 PWs)   bands (ev):

   -28.7240  -9.3748  -9.3677  -9.2019   2.1238   4.2654   4.2773   6.4514
     7.9110   9.0986   9.2694  17.7668  17.9932  18.1188  18.8354

     occupation numbers 
     1.0000   1.0000   1.0000   1.0000   1.0000   1.0000   1.0000   1.0000
     1.0000   1.0000   1.0000  -0.0000  -0.0000  -0.0000  -0.0000

          k =-0.5000-0.5000 0.3750 (  4136 PWs)   bands (ev):

   -28.7201  -9.3546  -9.3513  -9.2731   2.6058   4.1957   4.2025   5.5164
     8.4093   8.9959   9.0662  17.8350  18.0094  19.0272  19.3627

     occupation numbers 
     1.0000   1.0000   1.0000   1.0000   1.0000   1.0000   1.0000   1.0000
     1.0000   1.0000   1.0000  -0.0000  -0.0000  -0.0000  -0.0000

          k =-0.5000-0.5000 0.4375 (  4136 PWs)   bands (ev):

   -28.7174  -9.3411  -9.3402  -9.3200   3.1647   4.1484   4.1503   4.6845
     8.7764   8.9341   8.9508  17.8819  17.9549  18.8015  19.5136

     occupation numbers 
     1.0000   1.0000   1.0000   1.0000   1.0000   1.0000   1.0000   1.0000
     1.0000   1.0000   1.0000  -0.0000  -0.0000  -0.0000  -0.0000

          k =-0.5000-0.5000-0.5000 (  4224 PWs)   bands (ev):

   -28.7165  -9.3363  -9.3363  -9.3363   3.6265   4.1316   4.1316   4.1316
     8.9136   8.9136   8.9136  17.8986  17.8986  18.6594  19.6324

     occupation numbers 
     1.0000   1.0000   1.0000   1.0000   1.0000   1.0000   1.0000   1.0000
     1.0000   1.0000   1.0000  -0.0000  -0.0000  -0.0000  -0.0000

     the Fermi energy is    13.1330 ev

!    total energy              =    -110.13928970 Ry
     estimated scf accuracy    <          5.0E-13 Ry
     smearing contrib. (-TS)   =      -0.00049600 Ry
     internal energy E=F+TS    =    -110.13879370 Ry

     The total energy is F=E-TS. E is the sum of the following terms:
     one-electron contribution =      -1.99150808 Ry
     hartree contribution      =      12.97610647 Ry
     xc contribution           =     -35.28516184 Ry
     ewald contribution        =     -85.83823025 Ry

     convergence has been achieved in  13 iterations

     Forces acting on atoms (cartesian axes, Ry/au):

     atom    1 type  1   force =     0.00000000    0.00000001   -0.00000000
     atom    2 type  2   force =     0.00000000   -0.00000000    0.00000000
     atom    3 type  3   force =    -0.00006296   -0.00000002   -0.00000001
     atom    4 type  3   force =     0.00006296    0.00000002    0.00000001
     atom    5 type  3   force =     0.00000005   -0.00006291   -0.00000007
     atom    6 type  3   force =    -0.00000005    0.00006291    0.00000007
     atom    7 type  3   force =     0.00000008   -0.00000003   -0.00006290
     atom    8 type  3   force =    -0.00000008    0.00000003    0.00006290
     The non-local contrib.  to forces
     atom    1 type  1   force =    -0.00000000    0.00000000   -0.00000000
     atom    2 type  2   force =    -0.00000000    0.00000000    0.00000000
     atom    3 type  3   force =    -0.00142383    0.00000000    0.00000002
     atom    4 type  3   force =     0.00142383   -0.00000000   -0.00000002
     atom    5 type  3   force =    -0.00000000   -0.00142383   -0.00000000
     atom    6 type  3   force =    -0.00000000    0.00142383    0.00000000
     atom    7 type  3   force =    -0.00000001    0.00000000   -0.00142383
     atom    8 type  3   force =     0.00000001   -0.00000000    0.00142383
     The ionic contribution  to forces
     atom    1 type  1   force =    -0.00000002    0.00000002   -0.00000000
     atom    2 type  2   force =     0.00000002   -0.00000002    0.00000000
     atom    3 type  3   force =     0.40294573    0.00000001   -0.00000073
     atom    4 type  3   force =    -0.40294573    0.00000000    0.00000074
     atom    5 type  3   force =     0.00000002    0.40294580    0.00000014
     atom    6 type  3   force =    -0.00000000   -0.40294580   -0.00000014
     atom    7 type  3   force =     0.00000055   -0.00000015    0.40294602
     atom    8 type  3   force =    -0.00000056    0.00000013   -0.40294602
     The local contribution  to forces
     atom    1 type  1   force =     0.00000003   -0.00000000   -0.00000001
     atom    2 type  2   force =    -0.00000001    0.00000001   -0.00000000
     atom    3 type  3   force =    -0.40158476   -0.00000002    0.00000071
     atom    4 type  3   force =     0.40158476    0.00000002   -0.00000071
     atom    5 type  3   force =     0.00000003   -0.40158478   -0.00000020
     atom    6 type  3   force =    -0.00000005    0.40158477    0.00000020
     atom    7 type  3   force =    -0.00000045    0.00000011   -0.40158499
     atom    8 type  3   force =     0.00000046   -0.00000010    0.40158499
     The core correction contribution to forces
     atom    1 type  1   force =     0.00000000    0.00000000   -0.00000000
     atom    2 type  2   force =     0.00000000   -0.00000000   -0.00000000
     atom    3 type  3   force =     0.00000000    0.00000000    0.00000000
     atom    4 type  3   force =     0.00000000    0.00000000    0.00000000
     atom    5 type  3   force =     0.00000000    0.00000000    0.00000000
     atom    6 type  3   force =     0.00000000    0.00000000    0.00000000
     atom    7 type  3   force =     0.00000000    0.00000000    0.00000000
     atom    8 type  3   force =     0.00000000    0.00000000    0.00000000
     The Hubbard contrib.    to forces
     atom    1 type  1   force =     0.00000000    0.00000000    0.00000000
     atom    2 type  2   force =     0.00000000    0.00000000    0.00000000
     atom    3 type  3   force =     0.00000000    0.00000000    0.00000000
     atom    4 type  3   force =     0.00000000    0.00000000    0.00000000
     atom    5 type  3   force =     0.00000000    0.00000000    0.00000000
     atom    6 type  3   force =     0.00000000    0.00000000    0.00000000
     atom    7 type  3   force =     0.00000000    0.00000000    0.00000000
     atom    8 type  3   force =     0.00000000    0.00000000    0.00000000
     The SCF correction term to forces
     atom    1 type  1   force =    -0.00000001   -0.00000001    0.00000001
     atom    2 type  2   force =     0.00000000    0.00000000   -0.00000000
     atom    3 type  3   force =    -0.00000010   -0.00000000   -0.00000000
     atom    4 type  3   force =     0.00000010   -0.00000000   -0.00000000
     atom    5 type  3   force =     0.00000000   -0.00000010    0.00000000
     atom    6 type  3   force =     0.00000000    0.00000010    0.00000000
     atom    7 type  3   force =    -0.00000000    0.00000000   -0.00000010
     atom    8 type  3   force =    -0.00000000    0.00000000    0.00000010

     Total force =     0.000154     Total SCF correction =     0.000000


     Computing stress (Cartesian axis) and pressure

          total   stress  (Ry/bohr**3)                   (kbar)     P=      498.52
   0.00338887  -0.00000000   0.00000000          498.52       -0.00        0.00
  -0.00000000   0.00338887   0.00000000           -0.00      498.52        0.00
   0.00000000   0.00000000   0.00338887            0.00        0.00      498.52

     kinetic stress (kbar)  11857.31     -0.00     -0.00
                               -0.00  11857.31     -0.00
                               -0.00     -0.00  11857.31

     local   stress (kbar)  -2601.46     -0.00      0.00
                               -0.00  -2601.47      0.00
                                0.00      0.00  -2601.46

     nonloc. stress (kbar)   4990.01      0.00      0.00
                                0.00   4990.01      0.00
                                0.00      0.00   4990.01

     hartree stress (kbar)   1865.82      0.00      0.00
                                0.00   1865.82      0.00
                                0.00      0.00   1865.82

     exc-cor stress (kbar)   4225.26      0.00     -0.00
                                0.00   4225.26     -0.00
                               -0.00     -0.00   4225.26

     corecor stress (kbar)  -7495.81      0.00      0.00
                                0.00  -7495.81      0.00
                                0.00      0.00  -7495.81

     ewald   stress (kbar) -12342.61      0.00     -0.00
                                0.00 -12342.61     -0.00
                               -0.00     -0.00 -12342.61

     hubbard stress (kbar)      0.00      0.00      0.00
                                0.00      0.00      0.00
                                0.00      0.00      0.00

     DFT-D   stress (kbar)      0.00      0.00      0.00
                                0.00      0.00      0.00
                                0.00      0.00      0.00

     XDM     stress (kbar)      0.00      0.00      0.00
                                0.00      0.00      0.00
                                0.00      0.00      0.00

     dft-nl  stress (kbar)      0.00      0.00      0.00
                                0.00      0.00      0.00
                                0.00      0.00      0.00

     TS-vdW  stress (kbar)      0.00      0.00      0.00
                                0.00      0.00      0.00
                                0.00      0.00      0.00



     Writing output data file ./out/ysbh6.save/

     init_run     :     10.91s CPU     11.14s WALL (       1 calls)
     electrons    :    285.85s CPU    290.37s WALL (       1 calls)
     forces       :      4.10s CPU      4.16s WALL (       1 calls)
     stress       :      6.80s CPU      6.83s WALL (       1 calls)

     Called by init_run:
     wfcinit      :     10.05s CPU     10.26s WALL (       1 calls)
     wfcinit:atom :      0.14s CPU      0.14s WALL (    2052 calls)
     wfcinit:wfcr :      9.00s CPU      9.20s WALL (    2052 calls)
     potinit      :      0.27s CPU      0.27s WALL (       1 calls)
     hinit0       :      0.51s CPU      0.51s WALL (       1 calls)

     Called by electrons:
     c_bands      :    255.92s CPU    259.78s WALL (      13 calls)
     sum_band     :     29.58s CPU     30.20s WALL (      13 calls)
     v_of_rho     :      0.07s CPU      0.08s WALL (      14 calls)
     v_h          :      0.00s CPU      0.00s WALL (      14 calls)
     v_xc         :      0.08s CPU      0.09s WALL (      16 calls)
     newd         :      0.27s CPU      0.29s WALL (      14 calls)
     mix_rho      :      0.01s CPU      0.01s WALL (      13 calls)

     Called by c_bands:
     init_us_2    :      5.90s CPU      6.00s WALL (   59508 calls)
     cegterg      :    241.20s CPU    244.90s WALL (   26676 calls)

     Called by sum_band:
     sum_band:wei :      0.23s CPU      0.23s WALL (      13 calls)
     sum_band:loo :     29.03s CPU     29.64s WALL (      13 calls)
     sum_band:buf :      0.24s CPU      0.25s WALL (   26676 calls)
     sum_band:ini :      2.60s CPU      2.65s WALL (   26676 calls)
     sum_band:cal :      9.72s CPU      9.94s WALL (   26676 calls)
     sum_band:bec :      0.18s CPU      0.19s WALL (   26676 calls)
     addusdens    :      0.28s CPU      0.30s WALL (      13 calls)
     addusd:skk   :      0.00s CPU      0.00s WALL (      39 calls)
     addusd:dgemm :      0.04s CPU      0.05s WALL (      39 calls)
     addusd:qvan2 :      0.22s CPU      0.22s WALL (      39 calls)

     Called by *egterg:
     cdiaghg      :     14.26s CPU     14.54s WALL (  111153 calls)
     cegterg:over :     20.26s CPU     20.69s WALL (   84477 calls)
     cegterg:upda :     10.17s CPU     10.21s WALL (   84477 calls)
     cegterg:last :     23.72s CPU     23.99s WALL (   57747 calls)
     h_psi        :    143.50s CPU    146.14s WALL (  113205 calls)
     s_psi        :     25.70s CPU     26.01s WALL (  113205 calls)
     g_psi        :      1.54s CPU      1.55s WALL (   84477 calls)

     Called by h_psi:
     h_psi:calbec :     27.32s CPU     28.03s WALL (  113205 calls)
     vloc_psi     :     89.91s CPU     91.33s WALL (  113205 calls)
     add_vuspsi   :     25.58s CPU     26.09s WALL (  113205 calls)

     General routines
     calbec       :     40.72s CPU     41.78s WALL (  150141 calls)
     fft          :      0.08s CPU      0.08s WALL (     205 calls)
     ffts         :      0.00s CPU      0.00s WALL (      27 calls)
     fftw         :     89.72s CPU     91.19s WALL ( 2622846 calls)
     interpolate  :      0.00s CPU      0.01s WALL (      14 calls)

     Parallel routines
     fft_scatt_xy :      8.40s CPU      8.53s WALL ( 2623078 calls)
     fft_scatt_yz :     35.58s CPU     36.22s WALL ( 2623078 calls)

     PWSCF        :   5m 9.34s CPU   5m15.10s WALL


   This run was terminated on:   0:29:21   1Jun2026            

=------------------------------------------------------------------------------=
   JOB DONE.
=------------------------------------------------------------------------------=
