
     Program PWSCF v.6.7MaX starts on 31May2026 at  4:41:34 

     This program is part of the open-source Quantum ESPRESSO suite
     for quantum simulation of materials; please cite
         "P. Giannozzi et al., J. Phys.:Condens. Matter 21 395502 (2009);
         "P. Giannozzi et al., J. Phys.:Condens. Matter 29 465901 (2017);
          URL http://www.quantum-espresso.org", 
     in publications or presentations arising from this work. More details at
     http://www.quantum-espresso.org/quote

     Parallel version (MPI), running on     9 processors

     MPI processes distributed on     1 nodes
     R & G space division:  proc/nbgrp/npool/nimage =       9
     Reading input from vc-relax.in

     Current dimensions of program PWSCF are:
     Max number of different atomic species (ntypx) = 10
     Max number of k-points (npk) =  40000
     Max angular momentum in pseudopotentials (lmaxx) =  3
     file K.pbe-spn-rrkjus_psl.1.0.0.UPF: wavefunction(s)  3S renormalized

     Subspace diagonalization in iterative solution of the eigenvalue problem:
     a serial algorithm will be used


     Parallelization info
     --------------------
     sticks:   dense  smooth     PW     G-vecs:    dense   smooth      PW
     Min         305     123     38                10643     2700     456
     Max         306     124     40                10646     2702     457
     Sum        2749    1111    349                95801    24309    4111



     bravais-lattice index     =            2
     lattice parameter (alat)  =      10.0157  a.u.
     unit-cell volume          =     251.1793 (a.u.)^3
     number of atoms/cell      =           10
     number of atomic types    =            3
     number of electrons       =        19.00
     number of Kohn-Sham states=           14
     kinetic-energy cutoff     =      80.0000  Ry
     charge density cutoff     =     800.0000  Ry
     scf convergence threshold =      1.0E-10
     mixing beta               =       0.3000
     number of iterations used =            8  plain     mixing
     energy convergence thresh.=      1.0E-06
     force convergence thresh. =      1.0E-04
     press convergence thresh. =      5.0E-01
     Exchange-correlation= PBE
                           (   1   4   3   4   0   0   0)
     nstep                     =          200


     celldm(1)=  10.015700  celldm(2)=   0.000000  celldm(3)=   0.000000
     celldm(4)=   0.000000  celldm(5)=   0.000000  celldm(6)=   0.000000

     crystal axes: (cart. coord. in units of alat)
               a(1) = (  -0.500000   0.000000   0.500000 )  
               a(2) = (   0.000000   0.500000   0.500000 )  
               a(3) = (  -0.500000   0.500000   0.000000 )  

     reciprocal axes: (cart. coord. in units 2 pi/alat)
               b(1) = ( -1.000000 -1.000000  1.000000 )  
               b(2) = (  1.000000  1.000000  1.000000 )  
               b(3) = ( -1.000000  1.000000 -1.000000 )  


     PseudoPot. # 1 for K  read from file:
     ./pseudo/K.pbe-spn-rrkjus_psl.1.0.0.UPF
     MD5 check sum: 897b700350bb708b0563e904352feb48
     Pseudo is Ultrasoft + core correction, Zval =  9.0
     Generated using &quot;atomic&quot; code by A. Dal Corso  v.6.2.2
     Using radial grid of 1165 points,  6 beta functions with: 
                l(1) =   0
                l(2) =   0
                l(3) =   1
                l(4) =   1
                l(5) =   2
                l(6) =   2
     Q(r) pseudized with 0 coefficients 


     PseudoPot. # 2 for Be read from file:
     ./pseudo/Be.pbe-n-rrkjus_psl.1.0.0.UPF
     MD5 check sum: 4cdd19bfc6f73cbf9d5a541ec8c1e79e
     Pseudo is Ultrasoft + core correction, Zval =  2.0
     Generated using &quot;atomic&quot; code by A. Dal Corso  v.6.3MaX
     Using radial grid of 1041 points,  4 beta functions with: 
                l(1) =   0
                l(2) =   0
                l(3) =   1
                l(4) =   1
     Q(r) pseudized with 0 coefficients 


     PseudoPot. # 3 for H  read from file:
     ./pseudo/H.pbe-rrkjus_psl.1.0.0.UPF
     MD5 check sum: 3f4114867bd07edc7f1424d066fc1888
     Pseudo is Ultrasoft, Zval =  1.0
     Generated using &quot;atomic&quot; code by A. Dal Corso  v.6.3MaX
     Using radial grid of  929 points,  2 beta functions with: 
                l(1) =   0
                l(2) =   0
     Q(r) pseudized with 0 coefficients 


     atomic species   valence    mass     pseudopotential
        K              9.00    39.09800     K ( 1.00)
        Be             2.00     9.01220     Be( 1.00)
        H              1.00     1.00800     H ( 1.00)

     No symmetry found



   Cartesian axes

     site n.     atom                  positions (alat units)
         1           K   tau(   1) = (   0.0000000   0.0000000   0.0000000  )
         2           Be  tau(   2) = (  -0.5000000   0.5000000   0.5000000  )
         3           H   tau(   3) = (  -0.1200000   0.1200000   0.1200000  )
         4           H   tau(   4) = (   0.1200000  -0.1200000  -0.1200000  )
         5           H   tau(   5) = (  -0.5000000   0.5000000   0.6200000  )
         6           H   tau(   6) = (  -0.5000000   0.5000000   0.3800000  )
         7           H   tau(   7) = (  -0.6200000   0.5000000   0.5000000  )
         8           H   tau(   8) = (  -0.3800000   0.5000000   0.5000000  )
         9           H   tau(   9) = (  -0.5000000   0.6200000   0.5000000  )
        10           H   tau(  10) = (  -0.5000000   0.3800000   0.5000000  )

     number of k points=   868  Methfessel-Paxton smearing, width (Ry)=  0.0100

     Number of k-points >= 100: set verbosity='high' to print them.

     Dense  grid:    95801 G-vectors     FFT dimensions: (  64,  64,  64)

     Smooth grid:    24309 G-vectors     FFT dimensions: (  45,  45,  45)

     Estimated max dynamical RAM per process >     117.54 MB

     Estimated total dynamical RAM >       1.03 GB

     Initial potential from superposition of free atoms

     starting charge   18.98094, renormalised to   19.00000
     Starting wfcs are   20 randomized atomic wfcs

     total cpu time spent up to now is        6.1 secs

     Self-consistent Calculation

     iteration #  1     ecut=    80.00 Ry     beta= 0.30
     Davidson diagonalization with overlap
     ethr =  1.00E-02,  avg # of iterations =  7.1

     total cpu time spent up to now is       28.3 secs

     total energy              =     -64.54533035 Ry
     estimated scf accuracy    <       4.78209644 Ry

     iteration #  2     ecut=    80.00 Ry     beta= 0.30
     Davidson diagonalization with overlap
     ethr =  1.00E-02,  avg # of iterations =  1.9

     total cpu time spent up to now is       38.2 secs

     total energy              =     -64.22993561 Ry
     estimated scf accuracy    <       1.06954116 Ry

     iteration #  3     ecut=    80.00 Ry     beta= 0.30
     Davidson diagonalization with overlap
     ethr =  5.63E-03,  avg # of iterations =  3.3

     total cpu time spent up to now is       50.4 secs

     total energy              =     -64.56874200 Ry
     estimated scf accuracy    <       0.04398696 Ry

     iteration #  4     ecut=    80.00 Ry     beta= 0.30
     Davidson diagonalization with overlap
     c_bands:  1 eigenvalues not converged
     ethr =  2.32E-04,  avg # of iterations =  6.2

     total cpu time spent up to now is       65.8 secs

     total energy              =     -64.58132891 Ry
     estimated scf accuracy    <       0.00850823 Ry

     iteration #  5     ecut=    80.00 Ry     beta= 0.30
     Davidson diagonalization with overlap
     c_bands:  1 eigenvalues not converged
     c_bands:  1 eigenvalues not converged
     c_bands:  1 eigenvalues not converged
     c_bands:  1 eigenvalues not converged
     c_bands:  1 eigenvalues not converged
     ethr =  4.48E-05,  avg # of iterations =  4.5

     total cpu time spent up to now is       76.6 secs

     total energy              =     -64.58181661 Ry
     estimated scf accuracy    <       0.00183895 Ry

     iteration #  6     ecut=    80.00 Ry     beta= 0.30
     Davidson diagonalization with overlap
     c_bands:  1 eigenvalues not converged
     c_bands:  1 eigenvalues not converged
     ethr =  9.68E-06,  avg # of iterations =  5.9

     total cpu time spent up to now is       90.6 secs

     total energy              =     -64.58248300 Ry
     estimated scf accuracy    <       0.00196057 Ry

     iteration #  7     ecut=    80.00 Ry     beta= 0.30
     Davidson diagonalization with overlap
     ethr =  9.68E-06,  avg # of iterations =  1.1

     total cpu time spent up to now is       98.9 secs

     total energy              =     -64.58234155 Ry
     estimated scf accuracy    <       0.00044222 Ry

     iteration #  8     ecut=    80.00 Ry     beta= 0.30
     Davidson diagonalization with overlap
     c_bands:  1 eigenvalues not converged
     c_bands:  1 eigenvalues not converged
     c_bands:  1 eigenvalues not converged
     c_bands:  1 eigenvalues not converged
     c_bands:  1 eigenvalues not converged
     c_bands:  1 eigenvalues not converged
     ethr =  2.33E-06,  avg # of iterations =  3.3

     total cpu time spent up to now is      111.0 secs

     total energy              =     -64.58250029 Ry
     estimated scf accuracy    <       0.00000565 Ry

     iteration #  9     ecut=    80.00 Ry     beta= 0.30
     Davidson diagonalization with overlap
     ethr =  2.97E-08,  avg # of iterations =  4.2

     total cpu time spent up to now is      125.2 secs

     total energy              =     -64.58250164 Ry
     estimated scf accuracy    <       0.00001036 Ry

     iteration # 10     ecut=    80.00 Ry     beta= 0.30
     Davidson diagonalization with overlap
     ethr =  2.97E-08,  avg # of iterations =  4.0

     total cpu time spent up to now is      138.6 secs

     total energy              =     -64.58250503 Ry
     estimated scf accuracy    <       0.00000056 Ry

     iteration # 11     ecut=    80.00 Ry     beta= 0.30
     Davidson diagonalization with overlap
     ethr =  2.95E-09,  avg # of iterations =  2.3

     total cpu time spent up to now is      148.7 secs

     total energy              =     -64.58250483 Ry
     estimated scf accuracy    <       0.00000051 Ry

     iteration # 12     ecut=    80.00 Ry     beta= 0.30
     Davidson diagonalization with overlap
     ethr =  2.66E-09,  avg # of iterations =  2.0

     total cpu time spent up to now is      159.0 secs

     total energy              =     -64.58250489 Ry
     estimated scf accuracy    <       0.00000002 Ry

     iteration # 13     ecut=    80.00 Ry     beta= 0.30
     Davidson diagonalization with overlap
     c_bands:  1 eigenvalues not converged
     ethr =  1.20E-10,  avg # of iterations =  4.1

     total cpu time spent up to now is      172.4 secs

     total energy              =     -64.58250491 Ry
     estimated scf accuracy    <          2.9E-09 Ry

     iteration # 14     ecut=    80.00 Ry     beta= 0.30
     Davidson diagonalization with overlap
     ethr =  1.52E-11,  avg # of iterations =  2.8

     total cpu time spent up to now is      184.9 secs

     total energy              =     -64.58250491 Ry
     estimated scf accuracy    <          4.7E-09 Ry

     iteration # 15     ecut=    80.00 Ry     beta= 0.30
     Davidson diagonalization with overlap
     ethr =  1.52E-11,  avg # of iterations =  2.2

     total cpu time spent up to now is      195.9 secs

     End of self-consistent calculation

     Number of k-points >= 100: set verbosity='high' to print the bands.

     the Fermi energy is    11.9522 ev

!    total energy              =     -64.58250491 Ry
     estimated scf accuracy    <          2.6E-11 Ry
     smearing contrib. (-TS)   =       0.00003355 Ry
     internal energy E=F+TS    =     -64.58253846 Ry

     The total energy is F=E-TS. E is the sum of the following terms:
     one-electron contribution =     -16.17554020 Ry
     hartree contribution      =      17.16463609 Ry
     xc contribution           =     -21.46698306 Ry
     ewald contribution        =     -44.10465129 Ry

     convergence has been achieved in  15 iterations

     Forces acting on atoms (cartesian axes, Ry/au):

     atom    1 type  1   force =    -0.00000000   -0.00000000   -0.00000001
     atom    2 type  2   force =    -0.00000000    0.00000001    0.00000002
     atom    3 type  3   force =    -0.35078225    0.35078224    0.35078225
     atom    4 type  3   force =     0.35078225   -0.35078225   -0.35078225
     atom    5 type  3   force =     0.00040166   -0.00040167    2.03654614
     atom    6 type  3   force =    -0.00040166    0.00040167   -2.03654614
     atom    7 type  3   force =    -2.03654617   -0.00040167   -0.00040166
     atom    8 type  3   force =     2.03654617    0.00040167    0.00040165
     atom    9 type  3   force =     0.00040167    2.03654617   -0.00040167
     atom   10 type  3   force =    -0.00040167   -2.03654617    0.00040167

     Total force =     5.061957     Total SCF correction =     0.000004


     Computing stress (Cartesian axis) and pressure

          total   stress  (Ry/bohr**3)                   (kbar)     P=     3767.82
   0.02561312  -0.00284929  -0.00284929         3767.82     -419.14     -419.14
  -0.00284929   0.02561312   0.00284929         -419.14     3767.82      419.14
  -0.00284929   0.00284929   0.02561312         -419.14      419.14     3767.82


     BFGS Geometry Optimization
     Energy error            =      0.0E+00
     Gradient error          =      2.0E+00
     Cell gradient error     =      2.5E-02


     number of scf cycles    =   1
     number of bfgs steps    =   0

     enthalpy new            =     -64.4117566589 Ry

     new trust radius        =       0.5000000000 bohr
     new conv_thr            =            1.0E-10 Ry

     new unit-cell volume =    384.78376 a.u.^3 (    57.01907 Ang^3 )
     density =      1.63593 g/cm^3

CELL_PARAMETERS (alat= 10.01570000)
  -0.585262688   0.017488486   0.585262687
  -0.017488487   0.585262687   0.585262687
  -0.585262687   0.585262687   0.017488487

ATOMIC_POSITIONS (crystal)
K            -0.0000000002       -0.0000000005        0.0000000003
Be            0.5000000003        0.5000000006        0.4999999998
H             0.1285986848        0.1285986846        0.1285986847
H            -0.1285986847       -0.1285986847       -0.1285986848
H             0.6699216208        0.6699216203        0.3300586875
H             0.3300783794        0.3300783797        0.6699413123
H             0.6699216212        0.3300586870        0.6699216210
H             0.3300783785        0.6699413129        0.3300783793
H             0.3300586868        0.6699216211        0.6699216211
H             0.6699413131        0.3300783789        0.3300783789



     Writing output data file ./out/kbeh8.save/
     NEW-OLD atomic charge density approx. for the potential
     extrapolated charge   25.59055, renormalised to   19.00000

     total cpu time spent up to now is      202.6 secs

     Self-consistent Calculation

     iteration #  1     ecut=    80.00 Ry     beta= 0.30
     Davidson diagonalization with overlap
     c_bands:  1 eigenvalues not converged
     c_bands:  1 eigenvalues not converged
     c_bands:  1 eigenvalues not converged
     c_bands:  1 eigenvalues not converged
     c_bands:  1 eigenvalues not converged
     c_bands:  1 eigenvalues not converged
     c_bands:  1 eigenvalues not converged
     c_bands:  1 eigenvalues not converged
     c_bands:  1 eigenvalues not converged
     c_bands:  1 eigenvalues not converged
     c_bands:  1 eigenvalues not converged
     c_bands:  1 eigenvalues not converged
     c_bands:  1 eigenvalues not converged
     c_bands:  1 eigenvalues not converged
     c_bands:  1 eigenvalues not converged
     c_bands:  1 eigenvalues not converged
     c_bands:  1 eigenvalues not converged
     c_bands:  1 eigenvalues not converged
     c_bands:  1 eigenvalues not converged
     c_bands:  1 eigenvalues not converged
     c_bands:  1 eigenvalues not converged
     c_bands:  1 eigenvalues not converged
     c_bands:  1 eigenvalues not converged
     c_bands:  1 eigenvalues not converged
     c_bands:  1 eigenvalues not converged
     c_bands:  1 eigenvalues not converged
     c_bands:  1 eigenvalues not converged
     c_bands:  1 eigenvalues not converged
     c_bands:  1 eigenvalues not converged
     c_bands:  1 eigenvalues not converged
     c_bands:  1 eigenvalues not converged
     c_bands:  1 eigenvalues not converged
     c_bands:  1 eigenvalues not converged
     c_bands:  1 eigenvalues not converged
     c_bands:  1 eigenvalues not converged
     c_bands:  1 eigenvalues not converged
     c_bands:  1 eigenvalues not converged
     c_bands:  1 eigenvalues not converged
     c_bands:  1 eigenvalues not converged
     c_bands:  1 eigenvalues not converged
     c_bands:  1 eigenvalues not converged
     c_bands:  1 eigenvalues not converged
     c_bands:  1 eigenvalues not converged
     c_bands:  1 eigenvalues not converged
     c_bands:  1 eigenvalues not converged
     c_bands:  1 eigenvalues not converged
     c_bands:  1 eigenvalues not converged
     c_bands:  1 eigenvalues not converged
     c_bands:  1 eigenvalues not converged
     c_bands:  1 eigenvalues not converged
     c_bands:  1 eigenvalues not converged
     c_bands:  1 eigenvalues not converged
     c_bands:  1 eigenvalues not converged
     c_bands:  1 eigenvalues not converged
     c_bands:  1 eigenvalues not converged
     c_bands:  1 eigenvalues not converged
     c_bands:  1 eigenvalues not converged
     c_bands:  1 eigenvalues not converged
     c_bands:  1 eigenvalues not converged
     c_bands:  1 eigenvalues not converged
     c_bands:  1 eigenvalues not converged
     c_bands:  1 eigenvalues not converged
     c_bands:  1 eigenvalues not converged
     c_bands:  1 eigenvalues not converged
     c_bands:  1 eigenvalues not converged
     c_bands:  1 eigenvalues not converged
     c_bands:  1 eigenvalues not converged
     c_bands:  1 eigenvalues not converged
     c_bands:  1 eigenvalues not converged
     c_bands:  1 eigenvalues not converged
     c_bands:  1 eigenvalues not converged
     c_bands:  1 eigenvalues not converged
     c_bands:  2 eigenvalues not converged
     c_bands:  1 eigenvalues not converged
     c_bands:  1 eigenvalues not converged
     c_bands:  1 eigenvalues not converged
     c_bands:  1 eigenvalues not converged
     c_bands:  1 eigenvalues not converged
     c_bands:  1 eigenvalues not converged
     c_bands:  1 eigenvalues not converged
     c_bands:  1 eigenvalues not converged
     c_bands:  1 eigenvalues not converged
     c_bands:  1 eigenvalues not converged
     c_bands:  1 eigenvalues not converged
     c_bands:  1 eigenvalues not converged
     c_bands:  1 eigenvalues not converged
     c_bands:  1 eigenvalues not converged
     c_bands:  1 eigenvalues not converged
     c_bands:  1 eigenvalues not converged
     c_bands:  1 eigenvalues not converged
     c_bands:  1 eigenvalues not converged
     c_bands:  1 eigenvalues not converged
     c_bands:  1 eigenvalues not converged
     c_bands:  1 eigenvalues not converged
     c_bands:  2 eigenvalues not converged
     c_bands:  1 eigenvalues not converged
     c_bands:  1 eigenvalues not converged
     c_bands:  1 eigenvalues not converged
     c_bands:  1 eigenvalues not converged
     c_bands:  1 eigenvalues not converged
     c_bands:  1 eigenvalues not converged
     c_bands:  1 eigenvalues not converged
     c_bands:  1 eigenvalues not converged
     c_bands:  1 eigenvalues not converged
     c_bands:  1 eigenvalues not converged
     c_bands:  1 eigenvalues not converged
     c_bands:  1 eigenvalues not converged
     c_bands:  1 eigenvalues not converged
     c_bands:  1 eigenvalues not converged
     c_bands:  1 eigenvalues not converged
     c_bands:  1 eigenvalues not converged
     c_bands:  1 eigenvalues not converged
     c_bands:  1 eigenvalues not converged
     c_bands:  1 eigenvalues not converged
     c_bands:  1 eigenvalues not converged
     c_bands:  1 eigenvalues not converged
     c_bands:  1 eigenvalues not converged
     c_bands:  1 eigenvalues not converged
     c_bands:  1 eigenvalues not converged
     c_bands:  1 eigenvalues not converged
     c_bands:  1 eigenvalues not converged
     c_bands:  1 eigenvalues not converged
     c_bands:  1 eigenvalues not converged
     c_bands:  1 eigenvalues not converged
     c_bands:  1 eigenvalues not converged
     c_bands:  1 eigenvalues not converged
     c_bands:  1 eigenvalues not converged
     c_bands:  1 eigenvalues not converged
     c_bands:  2 eigenvalues not converged
     c_bands:  1 eigenvalues not converged
     c_bands:  1 eigenvalues not converged
     c_bands:  1 eigenvalues not converged
     c_bands:  1 eigenvalues not converged
     c_bands:  1 eigenvalues not converged
     c_bands:  1 eigenvalues not converged
     c_bands:  1 eigenvalues not converged
     c_bands:  1 eigenvalues not converged
     c_bands:  1 eigenvalues not converged
     c_bands:  1 eigenvalues not converged
     c_bands:  1 eigenvalues not converged
     c_bands:  1 eigenvalues not converged
     c_bands:  1 eigenvalues not converged
     c_bands:  1 eigenvalues not converged
     c_bands:  1 eigenvalues not converged
     c_bands:  1 eigenvalues not converged
     c_bands:  1 eigenvalues not converged
     c_bands:  1 eigenvalues not converged
     c_bands:  1 eigenvalues not converged
     c_bands:  1 eigenvalues not converged
     c_bands:  1 eigenvalues not converged
     c_bands:  1 eigenvalues not converged
     c_bands:  1 eigenvalues not converged
     c_bands:  1 eigenvalues not converged
     c_bands:  1 eigenvalues not converged
     c_bands:  1 eigenvalues not converged
     c_bands:  1 eigenvalues not converged
     c_bands:  1 eigenvalues not converged
     c_bands:  1 eigenvalues not converged
     c_bands:  1 eigenvalues not converged
     c_bands:  1 eigenvalues not converged
     c_bands:  1 eigenvalues not converged
     c_bands:  1 eigenvalues not converged
     c_bands:  1 eigenvalues not converged
     c_bands:  1 eigenvalues not converged
     c_bands:  1 eigenvalues not converged
     c_bands:  1 eigenvalues not converged
     c_bands:  1 eigenvalues not converged
     c_bands:  1 eigenvalues not converged
     c_bands:  1 eigenvalues not converged
     c_bands:  1 eigenvalues not converged
     c_bands:  1 eigenvalues not converged
     c_bands:  1 eigenvalues not converged
     c_bands:  1 eigenvalues not converged
     c_bands:  1 eigenvalues not converged
     c_bands:  1 eigenvalues not converged
     c_bands:  1 eigenvalues not converged
     c_bands:  1 eigenvalues not converged
     c_bands:  1 eigenvalues not converged
     c_bands:  1 eigenvalues not converged
     ethr =  1.00E-06,  avg # of iterations = 15.8

     total cpu time spent up to now is      252.1 secs

     total energy              =     -65.83887500 Ry
     estimated scf accuracy    <       2.75473672 Ry

     iteration #  2     ecut=    80.00 Ry     beta= 0.30
     Davidson diagonalization with overlap
     ethr =  1.00E-02,  avg # of iterations =  4.3

     total cpu time spent up to now is      269.2 secs

     total energy              =     -69.46483427 Ry
     estimated scf accuracy    <       1.55535973 Ry

     iteration #  3     ecut=    80.00 Ry     beta= 0.30
     Davidson diagonalization with overlap
     ethr =  8.19E-03,  avg # of iterations =  1.1

     total cpu time spent up to now is      278.3 secs

     total energy              =     -69.16622180 Ry
     estimated scf accuracy    <       0.73948614 Ry

     iteration #  4     ecut=    80.00 Ry     beta= 0.30
     Davidson diagonalization with overlap
     ethr =  3.89E-03,  avg # of iterations =  2.1

     total cpu time spent up to now is      289.1 secs

     total energy              =     -69.25203756 Ry
     estimated scf accuracy    <       0.05922965 Ry

     iteration #  5     ecut=    80.00 Ry     beta= 0.30
     Davidson diagonalization with overlap
     ethr =  3.12E-04,  avg # of iterations =  4.7

     total cpu time spent up to now is      303.9 secs

     total energy              =     -69.27700789 Ry
     estimated scf accuracy    <       0.00892641 Ry

     iteration #  6     ecut=    80.00 Ry     beta= 0.30
     Davidson diagonalization with overlap
     c_bands:  1 eigenvalues not converged
     ethr =  4.70E-05,  avg # of iterations =  4.7

     total cpu time spent up to now is      318.4 secs

     total energy              =     -69.27742179 Ry
     estimated scf accuracy    <       0.00694852 Ry

     iteration #  7     ecut=    80.00 Ry     beta= 0.30
     Davidson diagonalization with overlap
     ethr =  3.66E-05,  avg # of iterations =  3.1

     total cpu time spent up to now is      331.5 secs

     total energy              =     -69.27964279 Ry
     estimated scf accuracy    <       0.00112268 Ry

     iteration #  8     ecut=    80.00 Ry     beta= 0.30
     Davidson diagonalization with overlap
     ethr =  5.91E-06,  avg # of iterations =  3.6

     total cpu time spent up to now is      342.4 secs

     total energy              =     -69.27970736 Ry
     estimated scf accuracy    <       0.00013229 Ry

     iteration #  9     ecut=    80.00 Ry     beta= 0.30
     Davidson diagonalization with overlap
     ethr =  6.96E-07,  avg # of iterations =  4.6

     total cpu time spent up to now is      357.0 secs

     total energy              =     -69.27976510 Ry
     estimated scf accuracy    <       0.00004567 Ry

     iteration # 10     ecut=    80.00 Ry     beta= 0.30
     Davidson diagonalization with overlap
     ethr =  2.40E-07,  avg # of iterations =  2.5

     total cpu time spent up to now is      368.6 secs

     total energy              =     -69.27977707 Ry
     estimated scf accuracy    <       0.00000042 Ry

     iteration # 11     ecut=    80.00 Ry     beta= 0.30
     Davidson diagonalization with overlap
     ethr =  2.21E-09,  avg # of iterations =  5.9

     total cpu time spent up to now is      386.2 secs

     total energy              =     -69.27977754 Ry
     estimated scf accuracy    <       0.00000074 Ry

     iteration # 12     ecut=    80.00 Ry     beta= 0.30
     Davidson diagonalization with overlap
     ethr =  2.21E-09,  avg # of iterations =  2.5

     total cpu time spent up to now is      398.6 secs

     total energy              =     -69.27977776 Ry
     estimated scf accuracy    <       0.00000003 Ry

     iteration # 13     ecut=    80.00 Ry     beta= 0.30
     Davidson diagonalization with overlap
     ethr =  1.69E-10,  avg # of iterations =  2.2

     total cpu time spent up to now is      408.9 secs

     total energy              =     -69.27977776 Ry
     estimated scf accuracy    <          4.1E-09 Ry

     iteration # 14     ecut=    80.00 Ry     beta= 0.30
     Davidson diagonalization with overlap
     ethr =  2.16E-11,  avg # of iterations =  3.9

     total cpu time spent up to now is      422.4 secs

     total energy              =     -69.27977776 Ry
     estimated scf accuracy    <          1.0E-09 Ry

     iteration # 15     ecut=    80.00 Ry     beta= 0.30
     Davidson diagonalization with overlap
     ethr =  5.45E-12,  avg # of iterations =  2.2

     total cpu time spent up to now is      433.8 secs

     End of self-consistent calculation

     Number of k-points >= 100: set verbosity='high' to print the bands.

     the Fermi energy is     6.1788 ev

!    total energy              =     -69.27977776 Ry
     estimated scf accuracy    <          9.4E-11 Ry
     smearing contrib. (-TS)   =      -0.00001185 Ry
     internal energy E=F+TS    =     -69.27976592 Ry

     The total energy is F=E-TS. E is the sum of the following terms:
     one-electron contribution =     -21.49808524 Ry
     hartree contribution      =      17.33832408 Ry
     xc contribution           =     -19.50641600 Ry
     ewald contribution        =     -45.61358875 Ry

     convergence has been achieved in  15 iterations

     Forces acting on atoms (cartesian axes, Ry/au):

     atom    1 type  1   force =    -0.00000000   -0.00000001    0.00000000
     atom    2 type  2   force =     0.00000001    0.00000002   -0.00000002
     atom    3 type  3   force =    -0.09783303    0.09783304    0.09783303
     atom    4 type  3   force =     0.09783303   -0.09783304   -0.09783303
     atom    5 type  3   force =     0.00921773   -0.00921773    0.26769279
     atom    6 type  3   force =    -0.00921773    0.00921772   -0.26769278
     atom    7 type  3   force =    -0.26769279   -0.00921773   -0.00921773
     atom    8 type  3   force =     0.26769279    0.00921772    0.00921773
     atom    9 type  3   force =     0.00921772    0.26769278   -0.00921773
     atom   10 type  3   force =    -0.00921772   -0.26769278    0.00921773

     Total force =     0.698859     Total SCF correction =     0.000006


     Computing stress (Cartesian axis) and pressure

          total   stress  (Ry/bohr**3)                   (kbar)     P=      738.47
   0.00502004  -0.00087310  -0.00087310          738.47     -128.44     -128.44
  -0.00087310   0.00502004   0.00087310         -128.44      738.47      128.44
  -0.00087310   0.00087310   0.00502004         -128.44      128.44      738.47

     Energy error            =      4.6E+00
     Gradient error          =      2.7E-01
     Cell gradient error     =      4.3E-03


     number of scf cycles    =   2
     number of bfgs steps    =   1

     enthalpy old            =     -64.4117566589 Ry
     enthalpy new            =     -69.0182070761 Ry

     CASE: enthalpy_new < enthalpy_old

     new trust radius        =       0.2630132184 bohr
     new conv_thr            =            1.0E-10 Ry

     new unit-cell volume =    461.54020 a.u.^3 (    68.39320 Ang^3 )
     density =      1.36387 g/cm^3

CELL_PARAMETERS (alat= 10.01570000)
  -0.632038601   0.038089002   0.632038602
  -0.038089003   0.632038608   0.632038602
  -0.632038602   0.632038610   0.038089001

ATOMIC_POSITIONS (crystal)
K             0.0000000017       -0.0000000014       -0.0000000005
Be            0.4999999932        0.5000000018        0.5000000048
H             0.1370325601        0.1370325607        0.1370325602
H            -0.1370325597       -0.1370325605       -0.1370325610
H             0.6742044627        0.6742044618        0.3242994360
H             0.3257955393        0.3257955392        0.6757005614
H             0.6742044619        0.3242994363        0.6742044618
H             0.3257955393        0.6757005624        0.3257955381
H             0.3242994389        0.6742044601        0.6742044608
H             0.6757005624        0.3257955396        0.3257955383



     Writing output data file ./out/kbeh8.save/
     NEW-OLD atomic charge density approx. for the potential
     extrapolated charge   22.15662, renormalised to   19.00000

     total cpu time spent up to now is      440.5 secs

     Self-consistent Calculation

     iteration #  1     ecut=    80.00 Ry     beta= 0.30
     Davidson diagonalization with overlap
     c_bands:  1 eigenvalues not converged
     c_bands:  1 eigenvalues not converged
     c_bands:  1 eigenvalues not converged
     c_bands:  2 eigenvalues not converged
     c_bands:  1 eigenvalues not converged
     c_bands:  1 eigenvalues not converged
     c_bands:  1 eigenvalues not converged
     c_bands:  1 eigenvalues not converged
     c_bands:  1 eigenvalues not converged
     c_bands:  1 eigenvalues not converged
     c_bands:  1 eigenvalues not converged
     c_bands:  2 eigenvalues not converged
     c_bands:  1 eigenvalues not converged
     c_bands:  1 eigenvalues not converged
     c_bands:  1 eigenvalues not converged
     c_bands:  1 eigenvalues not converged
     c_bands:  1 eigenvalues not converged
     c_bands:  1 eigenvalues not converged
     c_bands:  1 eigenvalues not converged
     c_bands:  2 eigenvalues not converged
     c_bands:  1 eigenvalues not converged
     c_bands:  1 eigenvalues not converged
     c_bands:  1 eigenvalues not converged
     c_bands:  1 eigenvalues not converged
     c_bands:  1 eigenvalues not converged
     c_bands:  1 eigenvalues not converged
     c_bands:  1 eigenvalues not converged
     c_bands:  1 eigenvalues not converged
     c_bands:  1 eigenvalues not converged
     c_bands:  1 eigenvalues not converged
     c_bands:  1 eigenvalues not converged
     c_bands:  1 eigenvalues not converged
     c_bands:  1 eigenvalues not converged
     c_bands:  2 eigenvalues not converged
     c_bands:  1 eigenvalues not converged
     c_bands:  1 eigenvalues not converged
     c_bands:  1 eigenvalues not converged
     c_bands:  1 eigenvalues not converged
     c_bands:  1 eigenvalues not converged
     c_bands:  1 eigenvalues not converged
     c_bands:  1 eigenvalues not converged
     c_bands:  1 eigenvalues not converged
     c_bands:  1 eigenvalues not converged
     c_bands:  1 eigenvalues not converged
     c_bands:  1 eigenvalues not converged
     c_bands:  1 eigenvalues not converged
     c_bands:  1 eigenvalues not converged
     c_bands:  1 eigenvalues not converged
     c_bands:  1 eigenvalues not converged
     c_bands:  1 eigenvalues not converged
     c_bands:  1 eigenvalues not converged
     c_bands:  1 eigenvalues not converged
     c_bands:  1 eigenvalues not converged
     c_bands:  1 eigenvalues not converged
     c_bands:  1 eigenvalues not converged
     c_bands:  1 eigenvalues not converged
     c_bands:  1 eigenvalues not converged
     c_bands:  1 eigenvalues not converged
     c_bands:  1 eigenvalues not converged
     c_bands:  1 eigenvalues not converged
     c_bands:  1 eigenvalues not converged
     c_bands:  1 eigenvalues not converged
     c_bands:  1 eigenvalues not converged
     c_bands:  1 eigenvalues not converged
     c_bands:  1 eigenvalues not converged
     c_bands:  1 eigenvalues not converged
     c_bands:  1 eigenvalues not converged
     c_bands:  1 eigenvalues not converged
     c_bands:  1 eigenvalues not converged
     c_bands:  1 eigenvalues not converged
     c_bands:  1 eigenvalues not converged
     c_bands:  1 eigenvalues not converged
     c_bands:  1 eigenvalues not converged
     c_bands:  1 eigenvalues not converged
     c_bands:  1 eigenvalues not converged
     c_bands:  1 eigenvalues not converged
     c_bands:  1 eigenvalues not converged
     c_bands:  1 eigenvalues not converged
     c_bands:  1 eigenvalues not converged
     c_bands:  1 eigenvalues not converged
     c_bands:  1 eigenvalues not converged
     c_bands:  1 eigenvalues not converged
     c_bands:  1 eigenvalues not converged
     c_bands:  1 eigenvalues not converged
     c_bands:  1 eigenvalues not converged
     c_bands:  1 eigenvalues not converged
     c_bands:  1 eigenvalues not converged
     c_bands:  1 eigenvalues not converged
     c_bands:  1 eigenvalues not converged
     c_bands:  1 eigenvalues not converged
     c_bands:  1 eigenvalues not converged
     c_bands:  1 eigenvalues not converged
     c_bands:  1 eigenvalues not converged
     c_bands:  1 eigenvalues not converged
     c_bands:  1 eigenvalues not converged
     c_bands:  1 eigenvalues not converged
     c_bands:  1 eigenvalues not converged
     c_bands:  1 eigenvalues not converged
     c_bands:  1 eigenvalues not converged
     c_bands:  1 eigenvalues not converged
     c_bands:  1 eigenvalues not converged
     c_bands:  1 eigenvalues not converged
     c_bands:  1 eigenvalues not converged
     c_bands:  1 eigenvalues not converged
     c_bands:  1 eigenvalues not converged
     c_bands:  1 eigenvalues not converged
     c_bands:  1 eigenvalues not converged
     c_bands:  1 eigenvalues not converged
     c_bands:  1 eigenvalues not converged
     c_bands:  1 eigenvalues not converged
     c_bands:  1 eigenvalues not converged
     c_bands:  1 eigenvalues not converged
     c_bands:  1 eigenvalues not converged
     c_bands:  1 eigenvalues not converged
     c_bands:  1 eigenvalues not converged
     c_bands:  1 eigenvalues not converged
     c_bands:  1 eigenvalues not converged
     c_bands:  1 eigenvalues not converged
     c_bands:  1 eigenvalues not converged
     c_bands:  1 eigenvalues not converged
     c_bands:  1 eigenvalues not converged
     c_bands:  1 eigenvalues not converged
     c_bands:  1 eigenvalues not converged
     c_bands:  1 eigenvalues not converged
     c_bands:  1 eigenvalues not converged
     c_bands:  1 eigenvalues not converged
     c_bands:  1 eigenvalues not converged
     c_bands:  1 eigenvalues not converged
     c_bands:  1 eigenvalues not converged
     c_bands:  1 eigenvalues not converged
     c_bands:  1 eigenvalues not converged
     c_bands:  1 eigenvalues not converged
     c_bands:  1 eigenvalues not converged
     c_bands:  1 eigenvalues not converged
     c_bands:  1 eigenvalues not converged
     c_bands:  1 eigenvalues not converged
     c_bands:  1 eigenvalues not converged
     c_bands:  1 eigenvalues not converged
     c_bands:  1 eigenvalues not converged
     c_bands:  2 eigenvalues not converged
     c_bands:  1 eigenvalues not converged
     c_bands:  1 eigenvalues not converged
     c_bands:  1 eigenvalues not converged
     c_bands:  1 eigenvalues not converged
     c_bands:  2 eigenvalues not converged
     c_bands:  1 eigenvalues not converged
     c_bands:  1 eigenvalues not converged
     c_bands:  1 eigenvalues not converged
     c_bands:  1 eigenvalues not converged
     c_bands:  1 eigenvalues not converged
     c_bands:  1 eigenvalues not converged
     c_bands:  1 eigenvalues not converged
     c_bands:  1 eigenvalues not converged
     c_bands:  1 eigenvalues not converged
     c_bands:  1 eigenvalues not converged
     c_bands:  1 eigenvalues not converged
     c_bands:  1 eigenvalues not converged
     c_bands:  1 eigenvalues not converged
     c_bands:  1 eigenvalues not converged
     c_bands:  1 eigenvalues not converged
     c_bands:  1 eigenvalues not converged
     c_bands:  1 eigenvalues not converged
     c_bands:  1 eigenvalues not converged
     c_bands:  1 eigenvalues not converged
     c_bands:  1 eigenvalues not converged
     c_bands:  1 eigenvalues not converged
     c_bands:  1 eigenvalues not converged
     c_bands:  1 eigenvalues not converged
     c_bands:  1 eigenvalues not converged
     c_bands:  1 eigenvalues not converged
     c_bands:  1 eigenvalues not converged
     c_bands:  1 eigenvalues not converged
     c_bands:  1 eigenvalues not converged
     c_bands:  1 eigenvalues not converged
     c_bands:  1 eigenvalues not converged
     c_bands:  1 eigenvalues not converged
     c_bands:  1 eigenvalues not converged
     c_bands:  1 eigenvalues not converged
     c_bands:  1 eigenvalues not converged
     c_bands:  1 eigenvalues not converged
     c_bands:  1 eigenvalues not converged
     c_bands:  1 eigenvalues not converged
     c_bands:  1 eigenvalues not converged
     c_bands:  1 eigenvalues not converged
     c_bands:  1 eigenvalues not converged
     c_bands:  1 eigenvalues not converged
     c_bands:  1 eigenvalues not converged
     c_bands:  1 eigenvalues not converged
     c_bands:  1 eigenvalues not converged
     c_bands:  1 eigenvalues not converged
     c_bands:  1 eigenvalues not converged
     c_bands:  1 eigenvalues not converged
     c_bands:  1 eigenvalues not converged
     c_bands:  1 eigenvalues not converged
     c_bands:  1 eigenvalues not converged
     c_bands:  1 eigenvalues not converged
     c_bands:  1 eigenvalues not converged
     c_bands:  1 eigenvalues not converged
     c_bands:  1 eigenvalues not converged
     c_bands:  1 eigenvalues not converged
     c_bands:  1 eigenvalues not converged
     c_bands:  1 eigenvalues not converged
     c_bands:  1 eigenvalues not converged
     c_bands:  1 eigenvalues not converged
     c_bands:  1 eigenvalues not converged
     c_bands:  1 eigenvalues not converged
     c_bands:  1 eigenvalues not converged
     c_bands:  1 eigenvalues not converged
     c_bands:  1 eigenvalues not converged
     c_bands:  1 eigenvalues not converged
     c_bands:  1 eigenvalues not converged
     c_bands:  1 eigenvalues not converged
     c_bands:  1 eigenvalues not converged
     c_bands:  1 eigenvalues not converged
     c_bands:  1 eigenvalues not converged
     c_bands:  1 eigenvalues not converged
     c_bands:  1 eigenvalues not converged
     c_bands:  1 eigenvalues not converged
     c_bands:  1 eigenvalues not converged
     c_bands:  1 eigenvalues not converged
     c_bands:  1 eigenvalues not converged
     c_bands:  1 eigenvalues not converged
     c_bands:  1 eigenvalues not converged
     c_bands:  1 eigenvalues not converged
     c_bands:  1 eigenvalues not converged
     c_bands:  1 eigenvalues not converged
     c_bands:  1 eigenvalues not converged
     c_bands:  1 eigenvalues not converged
     c_bands:  1 eigenvalues not converged
     c_bands:  1 eigenvalues not converged
     c_bands:  1 eigenvalues not converged
     c_bands:  1 eigenvalues not converged
     c_bands:  1 eigenvalues not converged
     c_bands:  1 eigenvalues not converged
     c_bands:  1 eigenvalues not converged
     c_bands:  1 eigenvalues not converged
     c_bands:  1 eigenvalues not converged
     c_bands:  1 eigenvalues not converged
     c_bands:  1 eigenvalues not converged
     c_bands:  1 eigenvalues not converged
     c_bands:  1 eigenvalues not converged
     c_bands:  1 eigenvalues not converged
     c_bands:  1 eigenvalues not converged
     c_bands:  1 eigenvalues not converged
     c_bands:  1 eigenvalues not converged
     c_bands:  1 eigenvalues not converged
     c_bands:  1 eigenvalues not converged
     c_bands:  1 eigenvalues not converged
     c_bands:  1 eigenvalues not converged
     c_bands:  1 eigenvalues not converged
     c_bands:  1 eigenvalues not converged
     c_bands:  1 eigenvalues not converged
     ethr =  1.00E-06,  avg # of iterations = 16.8

     total cpu time spent up to now is      491.2 secs

     total energy              =     -68.96083560 Ry
     estimated scf accuracy    <       0.50472246 Ry

     iteration #  2     ecut=    80.00 Ry     beta= 0.30
     Davidson diagonalization with overlap
     ethr =  2.66E-03,  avg # of iterations =  3.2

     total cpu time spent up to now is      506.2 secs

     total energy              =     -69.75909568 Ry
     estimated scf accuracy    <       0.21333978 Ry

     iteration #  3     ecut=    80.00 Ry     beta= 0.30
     Davidson diagonalization with overlap
     ethr =  1.12E-03,  avg # of iterations =  1.0

     total cpu time spent up to now is      515.2 secs

     total energy              =     -69.72339368 Ry
     estimated scf accuracy    <       0.11470170 Ry

     iteration #  4     ecut=    80.00 Ry     beta= 0.30
     Davidson diagonalization with overlap
     ethr =  6.04E-04,  avg # of iterations =  1.8

     total cpu time spent up to now is      525.0 secs

     total energy              =     -69.70986909 Ry
     estimated scf accuracy    <       0.03266810 Ry

     iteration #  5     ecut=    80.00 Ry     beta= 0.30
     Davidson diagonalization with overlap
     ethr =  1.72E-04,  avg # of iterations =  2.2

     total cpu time spent up to now is      536.5 secs

     total energy              =     -69.71732885 Ry
     estimated scf accuracy    <       0.00040511 Ry

     iteration #  6     ecut=    80.00 Ry     beta= 0.30
     Davidson diagonalization with overlap
     c_bands:  1 eigenvalues not converged
     c_bands:  1 eigenvalues not converged
     c_bands:  1 eigenvalues not converged
     c_bands:  1 eigenvalues not converged
     c_bands:  1 eigenvalues not converged
     c_bands:  1 eigenvalues not converged
     c_bands:  1 eigenvalues not converged
     c_bands:  1 eigenvalues not converged
     c_bands:  1 eigenvalues not converged
     c_bands:  1 eigenvalues not converged
     c_bands:  1 eigenvalues not converged
     c_bands:  1 eigenvalues not converged
     c_bands:  1 eigenvalues not converged
     c_bands:  1 eigenvalues not converged
     c_bands:  1 eigenvalues not converged
     c_bands:  1 eigenvalues not converged
     c_bands:  1 eigenvalues not converged
     c_bands:  1 eigenvalues not converged
     c_bands:  1 eigenvalues not converged
     c_bands:  1 eigenvalues not converged
     c_bands:  1 eigenvalues not converged
     c_bands:  1 eigenvalues not converged
     c_bands:  1 eigenvalues not converged
     c_bands:  1 eigenvalues not converged
     c_bands:  1 eigenvalues not converged
     c_bands:  1 eigenvalues not converged
     c_bands:  1 eigenvalues not converged
     ethr =  2.13E-06,  avg # of iterations = 10.5

     total cpu time spent up to now is      558.6 secs

     total energy              =     -69.71765957 Ry
     estimated scf accuracy    <       0.00040749 Ry

     iteration #  7     ecut=    80.00 Ry     beta= 0.30
     Davidson diagonalization with overlap
     ethr =  2.13E-06,  avg # of iterations =  1.4

     total cpu time spent up to now is      567.9 secs

     total energy              =     -69.71761571 Ry
     estimated scf accuracy    <       0.00008851 Ry

     iteration #  8     ecut=    80.00 Ry     beta= 0.30
     Davidson diagonalization with overlap
     ethr =  4.66E-07,  avg # of iterations =  3.7

     total cpu time spent up to now is      581.5 secs

     total energy              =     -69.71763374 Ry
     estimated scf accuracy    <       0.00008854 Ry

     iteration #  9     ecut=    80.00 Ry     beta= 0.30
     Davidson diagonalization with overlap
     ethr =  4.66E-07,  avg # of iterations =  2.0

     total cpu time spent up to now is      592.6 secs

     total energy              =     -69.71765262 Ry
     estimated scf accuracy    <       0.00000010 Ry

     iteration # 10     ecut=    80.00 Ry     beta= 0.30
     Davidson diagonalization with overlap
     ethr =  5.52E-10,  avg # of iterations =  7.1

     total cpu time spent up to now is      615.2 secs

     total energy              =     -69.71765288 Ry
     estimated scf accuracy    <       0.00000074 Ry

     iteration # 11     ecut=    80.00 Ry     beta= 0.30
     Davidson diagonalization with overlap
     ethr =  5.52E-10,  avg # of iterations =  3.4

     total cpu time spent up to now is      628.1 secs

     total energy              =     -69.71765301 Ry
     estimated scf accuracy    <          8.7E-09 Ry

     iteration # 12     ecut=    80.00 Ry     beta= 0.30
     Davidson diagonalization with overlap
     ethr =  4.60E-11,  avg # of iterations =  2.9

     total cpu time spent up to now is      638.5 secs

     total energy              =     -69.71765301 Ry
     estimated scf accuracy    <          1.1E-09 Ry

     iteration # 13     ecut=    80.00 Ry     beta= 0.30
     Davidson diagonalization with overlap
     ethr =  5.86E-12,  avg # of iterations =  3.0

     total cpu time spent up to now is      648.0 secs

     total energy              =     -69.71765301 Ry
     estimated scf accuracy    <          9.8E-10 Ry

     iteration # 14     ecut=    80.00 Ry     beta= 0.30
     Davidson diagonalization with overlap
     ethr =  5.14E-12,  avg # of iterations =  2.9

     total cpu time spent up to now is      658.7 secs

     End of self-consistent calculation

     Number of k-points >= 100: set verbosity='high' to print the bands.

     the Fermi energy is     3.9703 ev

!    total energy              =     -69.71765301 Ry
     estimated scf accuracy    <          4.3E-11 Ry
     smearing contrib. (-TS)   =       0.00000103 Ry
     internal energy E=F+TS    =     -69.71765405 Ry

     The total energy is F=E-TS. E is the sum of the following terms:
     one-electron contribution =     -24.75539307 Ry
     hartree contribution      =      18.04528880 Ry
     xc contribution           =     -19.03314434 Ry
     ewald contribution        =     -43.97440544 Ry

     convergence has been achieved in  14 iterations

     Forces acting on atoms (cartesian axes, Ry/au):

     atom    1 type  1   force =     0.00000002   -0.00000002    0.00000003
     atom    2 type  2   force =    -0.00000002   -0.00000004    0.00000003
     atom    3 type  3   force =    -0.05975684    0.05975685    0.05975684
     atom    4 type  3   force =     0.05975684   -0.05975684   -0.05975685
     atom    5 type  3   force =     0.01637014   -0.01637014    0.14963958
     atom    6 type  3   force =    -0.01637014    0.01637013   -0.14963964
     atom    7 type  3   force =    -0.14963960   -0.01637014   -0.01637014
     atom    8 type  3   force =     0.14963961    0.01637014    0.01637014
     atom    9 type  3   force =     0.01637014    0.14963963   -0.01637014
     atom   10 type  3   force =    -0.01637014   -0.14963958    0.01637014

     Total force =     0.398739     Total SCF correction =     0.000003


     Computing stress (Cartesian axis) and pressure

          total   stress  (Ry/bohr**3)                   (kbar)     P=      419.82
   0.00285389  -0.00067283  -0.00067283          419.82      -98.98      -98.98
  -0.00067283   0.00285389   0.00067283          -98.98      419.82       98.98
  -0.00067283   0.00067283   0.00285389          -98.98       98.98      419.82

     Energy error            =      3.9E-01
     Gradient error          =      1.5E-01
     Cell gradient error     =      2.2E-03


     number of scf cycles    =   3
     number of bfgs steps    =   2

     enthalpy old            =     -69.0182070761 Ry
     enthalpy new            =     -69.4039043612 Ry

     CASE: enthalpy_new < enthalpy_old

     new trust radius        =       0.2935072786 bohr
     new conv_thr            =            1.0E-10 Ry

     new unit-cell volume =    545.84040 a.u.^3 (    80.88520 Ang^3 )
     density =      1.15323 g/cm^3

CELL_PARAMETERS (alat= 10.01570000)
  -0.685781794   0.072396645   0.685781794
  -0.072396645   0.685781799   0.685781794
  -0.685781799   0.685781803   0.072396640

ATOMIC_POSITIONS (crystal)
K             0.0000000101        0.0000000033       -0.0000000156
Be            0.5000000107        0.4999999964        0.4999999966
H             0.1480158427        0.1480158481        0.1480158479
H            -0.1480158457       -0.1480158475       -0.1480158452
H             0.6792707287        0.6792707262        0.3135402352
H             0.3207292626        0.3207292615        0.6864597726
H             0.6792707303        0.3135402315        0.6792707310
H             0.3207292679        0.6864597689        0.3207292655
H             0.3135402292        0.6792707361        0.6792707372
H             0.6864597634        0.3207292755        0.3207292746



     Writing output data file ./out/kbeh8.save/
     NEW-OLD atomic charge density approx. for the potential
     extrapolated charge   21.93144, renormalised to   19.00000

     total cpu time spent up to now is      664.7 secs

     Self-consistent Calculation

     iteration #  1     ecut=    80.00 Ry     beta= 0.30
     Davidson diagonalization with overlap
     c_bands:  1 eigenvalues not converged
     c_bands:  1 eigenvalues not converged
     c_bands:  1 eigenvalues not converged
     c_bands:  1 eigenvalues not converged
     c_bands:  1 eigenvalues not converged
     c_bands:  1 eigenvalues not converged
     c_bands:  1 eigenvalues not converged
     c_bands:  1 eigenvalues not converged
     c_bands:  1 eigenvalues not converged
     c_bands:  1 eigenvalues not converged
     c_bands:  1 eigenvalues not converged
     c_bands:  1 eigenvalues not converged
     c_bands:  1 eigenvalues not converged
     c_bands:  1 eigenvalues not converged
     c_bands:  1 eigenvalues not converged
     c_bands:  1 eigenvalues not converged
     c_bands:  1 eigenvalues not converged
     c_bands:  1 eigenvalues not converged
     c_bands:  1 eigenvalues not converged
     c_bands:  1 eigenvalues not converged
     c_bands:  1 eigenvalues not converged
     c_bands:  1 eigenvalues not converged
     c_bands:  1 eigenvalues not converged
     c_bands:  1 eigenvalues not converged
     c_bands:  1 eigenvalues not converged
     c_bands:  1 eigenvalues not converged
     c_bands:  1 eigenvalues not converged
     c_bands:  1 eigenvalues not converged
     c_bands:  1 eigenvalues not converged
     c_bands:  1 eigenvalues not converged
     c_bands:  1 eigenvalues not converged
     c_bands:  1 eigenvalues not converged
     c_bands:  1 eigenvalues not converged
     c_bands:  1 eigenvalues not converged
     c_bands:  1 eigenvalues not converged
     ethr =  1.00E-06,  avg # of iterations = 13.8

     total cpu time spent up to now is      704.8 secs

     total energy              =     -69.44464039 Ry
     estimated scf accuracy    <       0.35625272 Ry

     iteration #  2     ecut=    80.00 Ry     beta= 0.30
     Davidson diagonalization with overlap
     ethr =  1.88E-03,  avg # of iterations =  3.1

     total cpu time spent up to now is      717.3 secs

     total energy              =     -70.03974154 Ry
     estimated scf accuracy    <       0.14109402 Ry

     iteration #  3     ecut=    80.00 Ry     beta= 0.30
     Davidson diagonalization with overlap
     ethr =  7.43E-04,  avg # of iterations =  1.0

     total cpu time spent up to now is      725.1 secs

     total energy              =     -70.02003931 Ry
     estimated scf accuracy    <       0.07551230 Ry

     iteration #  4     ecut=    80.00 Ry     beta= 0.30
     Davidson diagonalization with overlap
     ethr =  3.97E-04,  avg # of iterations =  1.9

     total cpu time spent up to now is      734.7 secs

     total energy              =     -70.00678526 Ry
     estimated scf accuracy    <       0.02814255 Ry

     iteration #  5     ecut=    80.00 Ry     beta= 0.30
     Davidson diagonalization with overlap
     ethr =  1.48E-04,  avg # of iterations =  2.1

     total cpu time spent up to now is      745.6 secs

     total energy              =     -70.01138234 Ry
     estimated scf accuracy    <       0.00066097 Ry

     iteration #  6     ecut=    80.00 Ry     beta= 0.30
     Davidson diagonalization with overlap
     ethr =  3.48E-06,  avg # of iterations =  6.2

     total cpu time spent up to now is      761.7 secs

     total energy              =     -70.01170103 Ry
     estimated scf accuracy    <       0.00005284 Ry

     iteration #  7     ecut=    80.00 Ry     beta= 0.30
     Davidson diagonalization with overlap
     ethr =  2.78E-07,  avg # of iterations =  2.8

     total cpu time spent up to now is      771.9 secs

     total energy              =     -70.01169333 Ry
     estimated scf accuracy    <       0.00002987 Ry

     iteration #  8     ecut=    80.00 Ry     beta= 0.30
     Davidson diagonalization with overlap
     ethr =  1.57E-07,  avg # of iterations =  2.2

     total cpu time spent up to now is      781.5 secs

     total energy              =     -70.01170145 Ry
     estimated scf accuracy    <       0.00000132 Ry

     iteration #  9     ecut=    80.00 Ry     beta= 0.30
     Davidson diagonalization with overlap
     c_bands:  1 eigenvalues not converged
     ethr =  6.96E-09,  avg # of iterations =  3.6

     total cpu time spent up to now is      791.8 secs

     total energy              =     -70.01170155 Ry
     estimated scf accuracy    <       0.00000093 Ry

     iteration # 10     ecut=    80.00 Ry     beta= 0.30
     Davidson diagonalization with overlap
     ethr =  4.89E-09,  avg # of iterations =  1.2

     total cpu time spent up to now is      799.6 secs

     total energy              =     -70.01170133 Ry
     estimated scf accuracy    <       0.00000042 Ry

     iteration # 11     ecut=    80.00 Ry     beta= 0.30
     Davidson diagonalization with overlap
     ethr =  2.21E-09,  avg # of iterations =  2.1

     total cpu time spent up to now is      809.3 secs

     total energy              =     -70.01170144 Ry
     estimated scf accuracy    <          4.4E-09 Ry

     iteration # 12     ecut=    80.00 Ry     beta= 0.30
     Davidson diagonalization with overlap
     ethr =  2.30E-11,  avg # of iterations =  5.6

     total cpu time spent up to now is      824.4 secs

     total energy              =     -70.01170145 Ry
     estimated scf accuracy    <          8.4E-10 Ry

     iteration # 13     ecut=    80.00 Ry     beta= 0.30
     Davidson diagonalization with overlap
     ethr =  4.41E-12,  avg # of iterations =  2.7

     total cpu time spent up to now is      835.0 secs

     total energy              =     -70.01170145 Ry
     estimated scf accuracy    <          1.1E-09 Ry

     iteration # 14     ecut=    80.00 Ry     beta= 0.30
     Davidson diagonalization with overlap
     ethr =  4.41E-12,  avg # of iterations =  2.0

     total cpu time spent up to now is      844.2 secs

     total energy              =     -70.01170145 Ry
     estimated scf accuracy    <          4.0E-10 Ry

     iteration # 15     ecut=    80.00 Ry     beta= 0.30
     Davidson diagonalization with overlap
     ethr =  2.10E-12,  avg # of iterations =  2.0

     total cpu time spent up to now is      853.0 secs

     End of self-consistent calculation

     Number of k-points >= 100: set verbosity='high' to print the bands.

     the Fermi energy is     2.4536 ev

!    total energy              =     -70.01170145 Ry
     estimated scf accuracy    <          3.7E-11 Ry
     smearing contrib. (-TS)   =       0.00005010 Ry
     internal energy E=F+TS    =     -70.01175155 Ry

     The total energy is F=E-TS. E is the sum of the following terms:
     one-electron contribution =     -27.28006909 Ry
     hartree contribution      =      18.52361257 Ry
     xc contribution           =     -18.62371736 Ry
     ewald contribution        =     -42.63157768 Ry

     convergence has been achieved in  15 iterations

     Forces acting on atoms (cartesian axes, Ry/au):

     atom    1 type  1   force =     0.00000000    0.00000004   -0.00000003
     atom    2 type  2   force =     0.00000004    0.00000009   -0.00000009
     atom    3 type  3   force =    -0.01269762    0.01269762    0.01269762
     atom    4 type  3   force =     0.01269762   -0.01269763   -0.01269762
     atom    5 type  3   force =     0.01991170   -0.01991170    0.08373256
     atom    6 type  3   force =    -0.01991170    0.01991170   -0.08373244
     atom    7 type  3   force =    -0.08373254   -0.01991170   -0.01991170
     atom    8 type  3   force =     0.08373248    0.01991170    0.01991170
     atom    9 type  3   force =     0.01991171    0.08373245   -0.01991170
     atom   10 type  3   force =    -0.01991170   -0.08373257    0.01991170

     Total force =     0.218614     Total SCF correction =     0.000002


     Computing stress (Cartesian axis) and pressure

          total   stress  (Ry/bohr**3)                   (kbar)     P=      201.11
   0.00136713  -0.00042955  -0.00042955          201.11      -63.19      -63.19
  -0.00042955   0.00136713   0.00042955          -63.19      201.11       63.19
  -0.00042955   0.00042955   0.00136713          -63.19       63.19      201.11

     Energy error            =      2.4E-01
     Gradient error          =      8.4E-02
     Cell gradient error     =      6.9E-04


     number of scf cycles    =   4
     number of bfgs steps    =   3

     enthalpy old            =     -69.4039043612 Ry
     enthalpy new            =     -69.6406466860 Ry

     CASE: enthalpy_new < enthalpy_old

     new trust radius        =       0.2336766054 bohr
     new conv_thr            =            1.0E-10 Ry

     new unit-cell volume =    599.35284 a.u.^3 (    88.81493 Ang^3 )
     density =      1.05027 g/cm^3

CELL_PARAMETERS (alat= 10.01570000)
  -0.728414398   0.111719475   0.728414396
  -0.111719473   0.728414400   0.728414396
  -0.728414405   0.728414407   0.111719467

ATOMIC_POSITIONS (crystal)
K            -0.0000000015        0.0000000070       -0.0000000085
Be            0.4999999691        0.5000000031        0.5000000214
H             0.1545344090        0.1545344141        0.1545344154
H            -0.1545344099       -0.1545344158       -0.1545344143
H             0.6869128751        0.6869128724        0.2959846840
H             0.3130871388        0.3130871380        0.7040153056
H             0.6869128719        0.2959846836        0.6869128737
H             0.3130871378        0.7040153078        0.3130871337
H             0.2959846941        0.6869128615        0.6869128625
H             0.7040153156        0.3130871284        0.3130871264



     Writing output data file ./out/kbeh8.save/
     NEW-OLD atomic charge density approx. for the potential
     extrapolated charge   20.69469, renormalised to   19.00000

     total cpu time spent up to now is      859.1 secs

     Self-consistent Calculation

     iteration #  1     ecut=    80.00 Ry     beta= 0.30
     Davidson diagonalization with overlap
     c_bands:  1 eigenvalues not converged
     c_bands:  1 eigenvalues not converged
     c_bands:  1 eigenvalues not converged
     c_bands:  1 eigenvalues not converged
     c_bands:  1 eigenvalues not converged
     ethr =  1.00E-06,  avg # of iterations = 11.1

     total cpu time spent up to now is      898.6 secs

     total energy              =     -69.99619366 Ry
     estimated scf accuracy    <       0.09241419 Ry

     iteration #  2     ecut=    80.00 Ry     beta= 0.30
     Davidson diagonalization with overlap
     ethr =  4.86E-04,  avg # of iterations =  3.2

     total cpu time spent up to now is      913.2 secs

     total energy              =     -70.15001030 Ry
     estimated scf accuracy    <       0.04959057 Ry

     iteration #  3     ecut=    80.00 Ry     beta= 0.30
     Davidson diagonalization with overlap
     ethr =  2.61E-04,  avg # of iterations =  1.0

     total cpu time spent up to now is      922.1 secs

     total energy              =     -70.14419360 Ry
     estimated scf accuracy    <       0.02159440 Ry

     iteration #  4     ecut=    80.00 Ry     beta= 0.30
     Davidson diagonalization with overlap
     ethr =  1.14E-04,  avg # of iterations =  1.9

     total cpu time spent up to now is      931.8 secs

     total energy              =     -70.14243621 Ry
     estimated scf accuracy    <       0.00514623 Ry

     iteration #  5     ecut=    80.00 Ry     beta= 0.30
     Davidson diagonalization with overlap
     ethr =  2.71E-05,  avg # of iterations =  2.4

     total cpu time spent up to now is      943.4 secs

     total energy              =     -70.14370777 Ry
     estimated scf accuracy    <       0.00015977 Ry

     iteration #  6     ecut=    80.00 Ry     beta= 0.30
     Davidson diagonalization with overlap
     ethr =  8.41E-07,  avg # of iterations =  5.7

     total cpu time spent up to now is      959.0 secs

     total energy              =     -70.14376931 Ry
     estimated scf accuracy    <       0.00020375 Ry

     iteration #  7     ecut=    80.00 Ry     beta= 0.30
     Davidson diagonalization with overlap
     ethr =  8.41E-07,  avg # of iterations =  2.0

     total cpu time spent up to now is      969.7 secs

     total energy              =     -70.14379713 Ry
     estimated scf accuracy    <       0.00000561 Ry

     iteration #  8     ecut=    80.00 Ry     beta= 0.30
     Davidson diagonalization with overlap
     ethr =  2.95E-08,  avg # of iterations =  4.7

     total cpu time spent up to now is      984.8 secs

     total energy              =     -70.14380121 Ry
     estimated scf accuracy    <       0.00000341 Ry

     iteration #  9     ecut=    80.00 Ry     beta= 0.30
     Davidson diagonalization with overlap
     ethr =  1.80E-08,  avg # of iterations =  2.0

     total cpu time spent up to now is      996.3 secs

     total energy              =     -70.14380207 Ry
     estimated scf accuracy    <       0.00000012 Ry

     iteration # 10     ecut=    80.00 Ry     beta= 0.30
     Davidson diagonalization with overlap
     ethr =  6.12E-10,  avg # of iterations =  3.6

     total cpu time spent up to now is     1009.2 secs

     total energy              =     -70.14380209 Ry
     estimated scf accuracy    <       0.00000008 Ry

     iteration # 11     ecut=    80.00 Ry     beta= 0.30
     Davidson diagonalization with overlap
     ethr =  4.43E-10,  avg # of iterations =  3.2

     total cpu time spent up to now is     1020.6 secs

     total energy              =     -70.14380210 Ry
     estimated scf accuracy    <       0.00000005 Ry

     iteration # 12     ecut=    80.00 Ry     beta= 0.30
     Davidson diagonalization with overlap
     ethr =  2.53E-10,  avg # of iterations =  1.2

     total cpu time spent up to now is     1029.5 secs

     total energy              =     -70.14380210 Ry
     estimated scf accuracy    <       0.00000001 Ry

     iteration # 13     ecut=    80.00 Ry     beta= 0.30
     Davidson diagonalization with overlap
     ethr =  5.92E-11,  avg # of iterations =  3.3

     total cpu time spent up to now is     1040.9 secs

     total energy              =     -70.14380210 Ry
     estimated scf accuracy    <          4.3E-10 Ry

     iteration # 14     ecut=    80.00 Ry     beta= 0.30
     Davidson diagonalization with overlap
     ethr =  2.29E-12,  avg # of iterations =  4.8

     total cpu time spent up to now is     1056.4 secs

     total energy              =     -70.14380210 Ry
     estimated scf accuracy    <          3.2E-10 Ry

     iteration # 15     ecut=    80.00 Ry     beta= 0.30
     Davidson diagonalization with overlap
     ethr =  1.66E-12,  avg # of iterations =  2.1

     total cpu time spent up to now is     1067.3 secs

     End of self-consistent calculation

     Number of k-points >= 100: set verbosity='high' to print the bands.

     the Fermi energy is     1.9154 ev

!    total energy              =     -70.14380210 Ry
     estimated scf accuracy    <          9.2E-12 Ry
     smearing contrib. (-TS)   =      -0.00009741 Ry
     internal energy E=F+TS    =     -70.14370469 Ry

     The total energy is F=E-TS. E is the sum of the following terms:
     one-electron contribution =     -28.36629421 Ry
     hartree contribution      =      18.66659935 Ry
     xc contribution           =     -18.37748970 Ry
     ewald contribution        =     -42.06652013 Ry

     convergence has been achieved in  15 iterations

     Forces acting on atoms (cartesian axes, Ry/au):

     atom    1 type  1   force =    -0.00000001   -0.00000000    0.00000001
     atom    2 type  2   force =    -0.00000006   -0.00000008    0.00000011
     atom    3 type  3   force =     0.01816735   -0.01816733   -0.01816736
     atom    4 type  3   force =    -0.01816734    0.01816735    0.01816735
     atom    5 type  3   force =     0.02238482   -0.02238482    0.04814106
     atom    6 type  3   force =    -0.02238481    0.02238480   -0.04814120
     atom    7 type  3   force =    -0.04814110   -0.02238482   -0.02238481
     atom    8 type  3   force =     0.04814118    0.02238480    0.02238482
     atom    9 type  3   force =     0.02238481    0.04814120   -0.02238480
     atom   10 type  3   force =    -0.02238483   -0.04814109    0.02238483

     Total force =     0.147982     Total SCF correction =     0.000001


     Computing stress (Cartesian axis) and pressure

          total   stress  (Ry/bohr**3)                   (kbar)     P=       92.72
   0.00063027  -0.00025358  -0.00025358           92.72      -37.30      -37.30
  -0.00025358   0.00063027   0.00025358          -37.30       92.72       37.30
  -0.00025358   0.00025358   0.00063027          -37.30       37.30       92.72

     Energy error            =      9.6E-02
     Gradient error          =      4.8E-02
     Cell gradient error     =      2.5E-04


     number of scf cycles    =   5
     number of bfgs steps    =   4

     enthalpy old            =     -69.6406466860 Ry
     enthalpy new            =     -69.7363703250 Ry

     CASE: enthalpy_new < enthalpy_old

     new trust radius        =       0.1938921157 bohr
     new conv_thr            =            1.0E-10 Ry

     new unit-cell volume =    615.71978 a.u.^3 (    91.24026 Ang^3 )
     density =      1.02235 g/cm^3

CELL_PARAMETERS (alat= 10.01570000)
  -0.758309860   0.152347444   0.758309857
  -0.152347441   0.758309860   0.758309859
  -0.758309871   0.758309870   0.152347431

ATOMIC_POSITIONS (crystal)
K             0.0000000001        0.0000000095       -0.0000000090
Be            0.5000000039        0.5000000012        0.5000000082
H             0.1547268862        0.1547268974        0.1547269046
H            -0.1547268937       -0.1547268989       -0.1547268977
H             0.6966498062        0.6966498001        0.2720641454
H             0.3033501889        0.3033501855        0.7279358546
H             0.6966498088        0.2720641407        0.6966498080
H             0.3033501930        0.7279358575        0.3033501826
H             0.2720641450        0.6966498121        0.6966498125
H             0.7279358616        0.3033501950        0.3033501907



     Writing output data file ./out/kbeh8.save/
     NEW-OLD atomic charge density approx. for the potential
     extrapolated charge   19.50455, renormalised to   19.00000

     total cpu time spent up to now is     1074.0 secs

     Self-consistent Calculation

     iteration #  1     ecut=    80.00 Ry     beta= 0.30
     Davidson diagonalization with overlap
     c_bands:  1 eigenvalues not converged
     c_bands:  1 eigenvalues not converged
     c_bands:  1 eigenvalues not converged
     ethr =  1.00E-06,  avg # of iterations = 11.4

     total cpu time spent up to now is     1112.2 secs

     total energy              =     -70.21693208 Ry
     estimated scf accuracy    <       0.02153345 Ry

     iteration #  2     ecut=    80.00 Ry     beta= 0.30
     Davidson diagonalization with overlap
     ethr =  1.13E-04,  avg # of iterations =  2.3

     total cpu time spent up to now is     1124.6 secs

     total energy              =     -70.22587401 Ry
     estimated scf accuracy    <       0.00888709 Ry

     iteration #  3     ecut=    80.00 Ry     beta= 0.30
     Davidson diagonalization with overlap
     ethr =  4.68E-05,  avg # of iterations =  1.4

     total cpu time spent up to now is     1133.9 secs

     total energy              =     -70.22557753 Ry
     estimated scf accuracy    <       0.00229642 Ry

     iteration #  4     ecut=    80.00 Ry     beta= 0.30
     Davidson diagonalization with overlap
     ethr =  1.21E-05,  avg # of iterations =  2.5

     total cpu time spent up to now is     1144.7 secs

     total energy              =     -70.22597417 Ry
     estimated scf accuracy    <       0.00015740 Ry

     iteration #  5     ecut=    80.00 Ry     beta= 0.30
     Davidson diagonalization with overlap
     ethr =  8.28E-07,  avg # of iterations =  4.2

     total cpu time spent up to now is     1159.4 secs

     total energy              =     -70.22606224 Ry
     estimated scf accuracy    <       0.00005664 Ry

     iteration #  6     ecut=    80.00 Ry     beta= 0.30
     Davidson diagonalization with overlap
     ethr =  2.98E-07,  avg # of iterations =  3.8

     total cpu time spent up to now is     1171.6 secs

     total energy              =     -70.22607233 Ry
     estimated scf accuracy    <       0.00003454 Ry

     iteration #  7     ecut=    80.00 Ry     beta= 0.30
     Davidson diagonalization with overlap
     ethr =  1.82E-07,  avg # of iterations =  2.0

     total cpu time spent up to now is     1182.8 secs

     total energy              =     -70.22608015 Ry
     estimated scf accuracy    <       0.00000172 Ry

     iteration #  8     ecut=    80.00 Ry     beta= 0.30
     Davidson diagonalization with overlap
     ethr =  9.04E-09,  avg # of iterations =  4.3

     total cpu time spent up to now is     1196.0 secs

     total energy              =     -70.22607871 Ry
     estimated scf accuracy    <       0.00000567 Ry

     iteration #  9     ecut=    80.00 Ry     beta= 0.30
     Davidson diagonalization with overlap
     ethr =  9.04E-09,  avg # of iterations =  4.0

     total cpu time spent up to now is     1210.3 secs

     total energy              =     -70.22607998 Ry
     estimated scf accuracy    <       0.00000010 Ry

     iteration # 10     ecut=    80.00 Ry     beta= 0.30
     Davidson diagonalization with overlap
     ethr =  5.38E-10,  avg # of iterations =  2.2

     total cpu time spent up to now is     1221.2 secs

     total energy              =     -70.22608001 Ry
     estimated scf accuracy    <          5.6E-09 Ry

     iteration # 11     ecut=    80.00 Ry     beta= 0.30
     Davidson diagonalization with overlap
     ethr =  2.96E-11,  avg # of iterations =  3.2

     total cpu time spent up to now is     1232.6 secs

     total energy              =     -70.22608002 Ry
     estimated scf accuracy    <          1.1E-09 Ry

     iteration # 12     ecut=    80.00 Ry     beta= 0.30
     Davidson diagonalization with overlap
     ethr =  5.79E-12,  avg # of iterations =  3.3

     total cpu time spent up to now is     1243.7 secs

     total energy              =     -70.22608002 Ry
     estimated scf accuracy    <          4.8E-10 Ry

     iteration # 13     ecut=    80.00 Ry     beta= 0.30
     Davidson diagonalization with overlap
     ethr =  2.50E-12,  avg # of iterations =  3.8

     total cpu time spent up to now is     1256.0 secs

     End of self-consistent calculation

     Number of k-points >= 100: set verbosity='high' to print the bands.

     the Fermi energy is     1.8540 ev

!    total energy              =     -70.22608002 Ry
     estimated scf accuracy    <          9.1E-11 Ry
     smearing contrib. (-TS)   =      -0.00013306 Ry
     internal energy E=F+TS    =     -70.22594696 Ry

     The total energy is F=E-TS. E is the sum of the following terms:
     one-electron contribution =     -28.34651530 Ry
     hartree contribution      =      18.56491382 Ry
     xc contribution           =     -18.27650731 Ry
     ewald contribution        =     -42.16783817 Ry

     convergence has been achieved in  13 iterations

     Forces acting on atoms (cartesian axes, Ry/au):

     atom    1 type  1   force =     0.00000000    0.00000000   -0.00000001
     atom    2 type  2   force =     0.00000005   -0.00000001   -0.00000006
     atom    3 type  3   force =     0.03434955   -0.03434954   -0.03434957
     atom    4 type  3   force =    -0.03434955    0.03434954    0.03434956
     atom    5 type  3   force =     0.02512025   -0.02512025    0.03101271
     atom    6 type  3   force =    -0.02512024    0.02512024   -0.03101263
     atom    7 type  3   force =    -0.03101270   -0.02512025   -0.02512026
     atom    8 type  3   force =     0.03101265    0.02512025    0.02512025
     atom    9 type  3   force =     0.02512025    0.03101268   -0.02512026
     atom   10 type  3   force =    -0.02512026   -0.03101268    0.02512026

     Total force =     0.142907     Total SCF correction =     0.000006


     Computing stress (Cartesian axis) and pressure

          total   stress  (Ry/bohr**3)                   (kbar)     P=       42.08
   0.00028603  -0.00019904  -0.00019904           42.08      -29.28      -29.28
  -0.00019904   0.00028603   0.00019904          -29.28       42.08       29.28
  -0.00019904   0.00019904   0.00028603          -29.28       29.28       42.08

     Energy error            =      7.1E-02
     Gradient error          =      3.4E-02
     Cell gradient error     =      3.9E-04


     number of scf cycles    =   6
     number of bfgs steps    =   5

     enthalpy old            =     -69.7363703250 Ry
     enthalpy new            =     -69.8075222219 Ry

     CASE: enthalpy_new < enthalpy_old

     new trust radius        =       0.2801075921 bohr
     new conv_thr            =            1.0E-10 Ry

     new unit-cell volume =    615.08072 a.u.^3 (    91.14556 Ang^3 )
     density =      1.02341 g/cm^3

CELL_PARAMETERS (alat= 10.01570000)
  -0.795559683   0.213046347   0.795559679
  -0.213046341   0.795559684   0.795559684
  -0.795559704   0.795559700   0.213046326

ATOMIC_POSITIONS (crystal)
K            -0.0000000033        0.0000000115       -0.0000000069
Be            0.5000000098        0.4999999975        0.5000000016
H             0.1512023252        0.1512023447        0.1512023626
H            -0.1512023401       -0.1512023465       -0.1512023492
H             0.7115728531        0.7115728439        0.2340240153
H             0.2884271412        0.2884271358        0.7659759806
H             0.7115728572        0.2340240062        0.7115728562
H             0.2884271473        0.7659759900        0.2884271298
H             0.2340240103        0.7115728665        0.7115728673
H             0.7659759994        0.2884271503        0.2884271428



     Writing output data file ./out/kbeh8.save/
     NEW-OLD atomic charge density approx. for the potential
     extrapolated charge   18.98028, renormalised to   19.00000

     total cpu time spent up to now is     1262.7 secs

     Self-consistent Calculation

     iteration #  1     ecut=    80.00 Ry     beta= 0.30
     Davidson diagonalization with overlap
     c_bands:  1 eigenvalues not converged
     c_bands:  1 eigenvalues not converged
     c_bands:  1 eigenvalues not converged
     c_bands:  1 eigenvalues not converged
     c_bands:  1 eigenvalues not converged
     c_bands:  1 eigenvalues not converged
     c_bands:  1 eigenvalues not converged
     c_bands:  1 eigenvalues not converged
     c_bands:  1 eigenvalues not converged
     c_bands:  1 eigenvalues not converged
     c_bands:  1 eigenvalues not converged
     c_bands:  1 eigenvalues not converged
     c_bands:  1 eigenvalues not converged
     ethr =  1.00E-06,  avg # of iterations = 13.3

     total cpu time spent up to now is     1304.5 secs

     total energy              =     -70.33143301 Ry
     estimated scf accuracy    <       0.02068393 Ry

     iteration #  2     ecut=    80.00 Ry     beta= 0.30
     Davidson diagonalization with overlap
     ethr =  1.09E-04,  avg # of iterations =  1.0

     total cpu time spent up to now is     1313.4 secs

     total energy              =     -70.33013694 Ry
     estimated scf accuracy    <       0.00624236 Ry

     iteration #  3     ecut=    80.00 Ry     beta= 0.30
     Davidson diagonalization with overlap
     ethr =  3.29E-05,  avg # of iterations =  3.4

     total cpu time spent up to now is     1325.0 secs

     total energy              =     -70.33134505 Ry
     estimated scf accuracy    <       0.00045554 Ry

     iteration #  4     ecut=    80.00 Ry     beta= 0.30
     Davidson diagonalization with overlap
     ethr =  2.40E-06,  avg # of iterations =  4.3

     total cpu time spent up to now is     1339.4 secs

     total energy              =     -70.33154609 Ry
     estimated scf accuracy    <       0.00008471 Ry

     iteration #  5     ecut=    80.00 Ry     beta= 0.30
     Davidson diagonalization with overlap
     ethr =  4.46E-07,  avg # of iterations =  2.4

     total cpu time spent up to now is     1350.1 secs

     total energy              =     -70.33155744 Ry
     estimated scf accuracy    <       0.00001182 Ry

     iteration #  6     ecut=    80.00 Ry     beta= 0.30
     Davidson diagonalization with overlap
     ethr =  6.22E-08,  avg # of iterations =  3.7

     total cpu time spent up to now is     1362.1 secs

     total energy              =     -70.33155979 Ry
     estimated scf accuracy    <       0.00000909 Ry

     iteration #  7     ecut=    80.00 Ry     beta= 0.30
     Davidson diagonalization with overlap
     ethr =  4.79E-08,  avg # of iterations =  2.0

     total cpu time spent up to now is     1372.8 secs

     total energy              =     -70.33156098 Ry
     estimated scf accuracy    <       0.00000036 Ry

     iteration #  8     ecut=    80.00 Ry     beta= 0.30
     Davidson diagonalization with overlap
[...]
     c_bands:  1 eigenvalues not converged
     c_bands:  1 eigenvalues not converged
     c_bands:  1 eigenvalues not converged
     c_bands:  2 eigenvalues not converged
     c_bands:  2 eigenvalues not converged
     c_bands:  2 eigenvalues not converged
     c_bands:  2 eigenvalues not converged
     c_bands:  2 eigenvalues not converged
     c_bands:  2 eigenvalues not converged
     c_bands:  2 eigenvalues not converged
     c_bands:  1 eigenvalues not converged
     c_bands:  2 eigenvalues not converged
     c_bands:  1 eigenvalues not converged
     c_bands:  2 eigenvalues not converged
     c_bands:  1 eigenvalues not converged
     c_bands:  2 eigenvalues not converged
     c_bands:  2 eigenvalues not converged
     c_bands:  2 eigenvalues not converged
     c_bands:  3 eigenvalues not converged
     c_bands:  3 eigenvalues not converged
     c_bands:  2 eigenvalues not converged
     c_bands:  1 eigenvalues not converged
     c_bands:  1 eigenvalues not converged
     c_bands:  1 eigenvalues not converged
     c_bands:  2 eigenvalues not converged
     c_bands:  2 eigenvalues not converged
     c_bands:  2 eigenvalues not converged
     c_bands:  1 eigenvalues not converged
     c_bands:  2 eigenvalues not converged
     c_bands:  1 eigenvalues not converged
     c_bands:  1 eigenvalues not converged
     c_bands:  1 eigenvalues not converged
     c_bands:  3 eigenvalues not converged
     c_bands:  2 eigenvalues not converged
     c_bands:  1 eigenvalues not converged
     c_bands:  2 eigenvalues not converged
     c_bands:  2 eigenvalues not converged
     c_bands:  1 eigenvalues not converged
     c_bands:  2 eigenvalues not converged
     c_bands:  2 eigenvalues not converged
     c_bands:  1 eigenvalues not converged
     c_bands:  1 eigenvalues not converged
     c_bands:  2 eigenvalues not converged
     c_bands:  2 eigenvalues not converged
     c_bands:  3 eigenvalues not converged
     c_bands:  4 eigenvalues not converged
     c_bands:  2 eigenvalues not converged
     c_bands:  2 eigenvalues not converged
     c_bands:  1 eigenvalues not converged
     c_bands:  1 eigenvalues not converged
     c_bands:  1 eigenvalues not converged
     c_bands:  1 eigenvalues not converged
     c_bands:  1 eigenvalues not converged
     c_bands:  2 eigenvalues not converged
     c_bands:  2 eigenvalues not converged
     c_bands:  2 eigenvalues not converged
     c_bands:  2 eigenvalues not converged
     c_bands:  1 eigenvalues not converged
     c_bands:  1 eigenvalues not converged
     c_bands:  2 eigenvalues not converged
     c_bands:  2 eigenvalues not converged
     c_bands:  1 eigenvalues not converged
     c_bands:  1 eigenvalues not converged
     c_bands:  1 eigenvalues not converged
     c_bands:  1 eigenvalues not converged
     c_bands:  2 eigenvalues not converged
     c_bands:  2 eigenvalues not converged
     c_bands:  2 eigenvalues not converged
     c_bands:  2 eigenvalues not converged
     c_bands:  2 eigenvalues not converged
     c_bands:  1 eigenvalues not converged
     c_bands:  2 eigenvalues not converged
     c_bands:  1 eigenvalues not converged
     c_bands:  1 eigenvalues not converged
     c_bands:  1 eigenvalues not converged
     c_bands:  1 eigenvalues not converged
     c_bands:  1 eigenvalues not converged
     c_bands:  1 eigenvalues not converged
     c_bands:  1 eigenvalues not converged
     c_bands:  2 eigenvalues not converged
     c_bands:  2 eigenvalues not converged
     c_bands:  2 eigenvalues not converged
     c_bands:  2 eigenvalues not converged
     c_bands:  1 eigenvalues not converged
     c_bands:  2 eigenvalues not converged
     c_bands:  1 eigenvalues not converged
     c_bands:  1 eigenvalues not converged
     c_bands:  1 eigenvalues not converged
     c_bands:  1 eigenvalues not converged
     c_bands:  1 eigenvalues not converged
     c_bands:  1 eigenvalues not converged
     c_bands:  1 eigenvalues not converged
     c_bands:  2 eigenvalues not converged
     c_bands:  1 eigenvalues not converged
     c_bands:  2 eigenvalues not converged
     c_bands:  2 eigenvalues not converged
     c_bands:  1 eigenvalues not converged
     c_bands:  1 eigenvalues not converged
     c_bands:  1 eigenvalues not converged
     c_bands:  1 eigenvalues not converged
     c_bands:  1 eigenvalues not converged
     c_bands:  1 eigenvalues not converged
     c_bands:  2 eigenvalues not converged
     c_bands:  2 eigenvalues not converged
     c_bands:  2 eigenvalues not converged
     c_bands:  1 eigenvalues not converged
     c_bands:  1 eigenvalues not converged
     c_bands:  2 eigenvalues not converged
     c_bands:  2 eigenvalues not converged
     c_bands:  1 eigenvalues not converged
     c_bands:  1 eigenvalues not converged
     c_bands:  1 eigenvalues not converged
     c_bands:  1 eigenvalues not converged
     c_bands:  1 eigenvalues not converged
     c_bands:  2 eigenvalues not converged
     c_bands:  2 eigenvalues not converged
     c_bands:  2 eigenvalues not converged
     c_bands:  2 eigenvalues not converged
     c_bands:  2 eigenvalues not converged
     c_bands:  2 eigenvalues not converged
     c_bands:  2 eigenvalues not converged
     c_bands:  2 eigenvalues not converged
     c_bands:  1 eigenvalues not converged
     c_bands:  2 eigenvalues not converged
     c_bands:  1 eigenvalues not converged
     c_bands:  2 eigenvalues not converged
     c_bands:  2 eigenvalues not converged
     c_bands:  2 eigenvalues not converged
     c_bands:  2 eigenvalues not converged
     c_bands:  3 eigenvalues not converged
     c_bands:  3 eigenvalues not converged
     c_bands:  3 eigenvalues not converged
     c_bands:  2 eigenvalues not converged
     c_bands:  2 eigenvalues not converged
     c_bands:  2 eigenvalues not converged
     c_bands:  2 eigenvalues not converged
     c_bands:  2 eigenvalues not converged
     c_bands:  2 eigenvalues not converged
     c_bands:  2 eigenvalues not converged
     c_bands:  2 eigenvalues not converged
     c_bands:  2 eigenvalues not converged
     c_bands:  2 eigenvalues not converged
     c_bands:  3 eigenvalues not converged
     c_bands:  1 eigenvalues not converged
     c_bands:  2 eigenvalues not converged
     c_bands:  2 eigenvalues not converged
     c_bands:  2 eigenvalues not converged
     c_bands:  2 eigenvalues not converged
     c_bands:  2 eigenvalues not converged
     c_bands:  2 eigenvalues not converged
     c_bands:  2 eigenvalues not converged
     c_bands:  2 eigenvalues not converged
     c_bands:  2 eigenvalues not converged
     c_bands:  2 eigenvalues not converged
     c_bands:  2 eigenvalues not converged
     c_bands:  2 eigenvalues not converged
     c_bands:  1 eigenvalues not converged
     c_bands:  1 eigenvalues not converged
     c_bands:  2 eigenvalues not converged
     c_bands:  2 eigenvalues not converged
     c_bands:  2 eigenvalues not converged
     c_bands:  2 eigenvalues not converged
     c_bands:  2 eigenvalues not converged
     c_bands:  1 eigenvalues not converged
     c_bands:  2 eigenvalues not converged
     c_bands:  2 eigenvalues not converged
     c_bands:  2 eigenvalues not converged
     c_bands:  2 eigenvalues not converged
     c_bands:  2 eigenvalues not converged
     c_bands:  2 eigenvalues not converged
     c_bands:  2 eigenvalues not converged
     c_bands:  2 eigenvalues not converged
     c_bands:  2 eigenvalues not converged
     c_bands:  2 eigenvalues not converged
     c_bands:  2 eigenvalues not converged
     c_bands:  1 eigenvalues not converged
     c_bands:  2 eigenvalues not converged
     c_bands:  2 eigenvalues not converged
     c_bands:  2 eigenvalues not converged
     c_bands:  1 eigenvalues not converged
     c_bands:  4 eigenvalues not converged
     c_bands:  1 eigenvalues not converged
     c_bands:  2 eigenvalues not converged
     c_bands:  2 eigenvalues not converged
     c_bands:  2 eigenvalues not converged
     c_bands:  2 eigenvalues not converged
     c_bands:  2 eigenvalues not converged
     c_bands:  2 eigenvalues not converged
     c_bands:  2 eigenvalues not converged
     c_bands:  2 eigenvalues not converged
     c_bands:  2 eigenvalues not converged
     c_bands:  2 eigenvalues not converged
     c_bands:  2 eigenvalues not converged
     c_bands:  4 eigenvalues not converged
     c_bands:  2 eigenvalues not converged
     c_bands:  2 eigenvalues not converged
     c_bands:  2 eigenvalues not converged
     c_bands:  1 eigenvalues not converged
     c_bands:  1 eigenvalues not converged
     c_bands:  1 eigenvalues not converged
     c_bands:  2 eigenvalues not converged
     c_bands:  2 eigenvalues not converged
     c_bands:  2 eigenvalues not converged
     c_bands:  3 eigenvalues not converged
     c_bands:  2 eigenvalues not converged
     c_bands:  1 eigenvalues not converged
     c_bands:  1 eigenvalues not converged
     c_bands:  2 eigenvalues not converged
     c_bands:  2 eigenvalues not converged
     c_bands:  1 eigenvalues not converged
     c_bands:  1 eigenvalues not converged
     c_bands:  1 eigenvalues not converged
     c_bands:  1 eigenvalues not converged
     c_bands:  1 eigenvalues not converged
     c_bands:  1 eigenvalues not converged
     c_bands:  2 eigenvalues not converged
     c_bands:  2 eigenvalues not converged
     c_bands:  2 eigenvalues not converged
     c_bands:  1 eigenvalues not converged
     c_bands:  2 eigenvalues not converged
     c_bands:  2 eigenvalues not converged
     c_bands:  1 eigenvalues not converged
     c_bands:  1 eigenvalues not converged
     c_bands:  1 eigenvalues not converged
     c_bands:  1 eigenvalues not converged
     c_bands:  1 eigenvalues not converged
     c_bands:  1 eigenvalues not converged
     c_bands:  2 eigenvalues not converged
     c_bands:  2 eigenvalues not converged
     c_bands:  2 eigenvalues not converged
     c_bands:  2 eigenvalues not converged
     c_bands:  2 eigenvalues not converged
     c_bands:  2 eigenvalues not converged
     c_bands:  1 eigenvalues not converged
     c_bands:  1 eigenvalues not converged
     c_bands:  1 eigenvalues not converged
     ethr =  1.00E-06,  avg # of iterations = 20.0

     total cpu time spent up to now is     3778.7 secs

     total energy              =     -70.44861732 Ry
     estimated scf accuracy    <       0.41424237 Ry

     iteration #  2     ecut=    80.00 Ry     beta= 0.30
     Davidson diagonalization with overlap
     ethr =  2.18E-03,  avg # of iterations =  1.0

     total cpu time spent up to now is     3801.9 secs

     total energy              =     -70.40296299 Ry
     estimated scf accuracy    <       0.12749452 Ry

     iteration #  3     ecut=    80.00 Ry     beta= 0.30
     Davidson diagonalization with overlap
     ethr =  6.71E-04,  avg # of iterations =  4.3

     total cpu time spent up to now is     3833.4 secs

     total energy              =     -70.42220223 Ry
     estimated scf accuracy    <       0.01084599 Ry

     iteration #  4     ecut=    80.00 Ry     beta= 0.30
     Davidson diagonalization with overlap
     c_bands:  1 eigenvalues not converged
     ethr =  5.71E-05,  avg # of iterations =  5.3

     total cpu time spent up to now is     3871.2 secs

     total energy              =     -70.42543111 Ry
     estimated scf accuracy    <       0.00621521 Ry

     iteration #  5     ecut=    80.00 Ry     beta= 0.30
     Davidson diagonalization with overlap
     ethr =  3.27E-05,  avg # of iterations =  3.5

     total cpu time spent up to now is     3899.8 secs

     total energy              =     -70.42642405 Ry
     estimated scf accuracy    <       0.00009201 Ry

     iteration #  6     ecut=    80.00 Ry     beta= 0.30
     Davidson diagonalization with overlap
     c_bands:  1 eigenvalues not converged
     c_bands:  1 eigenvalues not converged
     c_bands:  1 eigenvalues not converged
     c_bands:  1 eigenvalues not converged
     c_bands:  1 eigenvalues not converged
     c_bands:  1 eigenvalues not converged
     c_bands:  1 eigenvalues not converged
     c_bands:  1 eigenvalues not converged
     c_bands:  1 eigenvalues not converged
     c_bands:  1 eigenvalues not converged
     c_bands:  1 eigenvalues not converged
     ethr =  4.84E-07,  avg # of iterations =  9.3

     total cpu time spent up to now is     3952.5 secs

     total energy              =     -70.42650161 Ry
     estimated scf accuracy    <       0.00020281 Ry

     iteration #  7     ecut=    80.00 Ry     beta= 0.30
     Davidson diagonalization with overlap
     ethr =  4.84E-07,  avg # of iterations =  3.6

     total cpu time spent up to now is     3982.2 secs

     total energy              =     -70.42655973 Ry
     estimated scf accuracy    <       0.00001181 Ry

     iteration #  8     ecut=    80.00 Ry     beta= 0.30
     Davidson diagonalization with overlap
     ethr =  6.21E-08,  avg # of iterations =  3.9

     total cpu time spent up to now is     4012.3 secs

     total energy              =     -70.42656050 Ry
     estimated scf accuracy    <       0.00002028 Ry

     iteration #  9     ecut=    80.00 Ry     beta= 0.30
     Davidson diagonalization with overlap
     ethr =  6.21E-08,  avg # of iterations =  2.9

     total cpu time spent up to now is     4040.8 secs

     total energy              =     -70.42656483 Ry
     estimated scf accuracy    <       0.00000007 Ry

     iteration # 10     ecut=    80.00 Ry     beta= 0.30
     Davidson diagonalization with overlap
     ethr =  3.73E-10,  avg # of iterations =  6.1

     total cpu time spent up to now is     4084.7 secs

     total energy              =     -70.42656523 Ry
     estimated scf accuracy    <       0.00000030 Ry

     iteration # 11     ecut=    80.00 Ry     beta= 0.30
     Davidson diagonalization with overlap
     ethr =  3.73E-10,  avg # of iterations =  2.0

     total cpu time spent up to now is     4111.4 secs

     total energy              =     -70.42656522 Ry
     estimated scf accuracy    <       0.00000012 Ry

     iteration # 12     ecut=    80.00 Ry     beta= 0.30
     Davidson diagonalization with overlap
     ethr =  3.73E-10,  avg # of iterations =  3.8

     total cpu time spent up to now is     4141.2 secs

     total energy              =     -70.42656527 Ry
     estimated scf accuracy    <          1.3E-09 Ry

     iteration # 13     ecut=    80.00 Ry     beta= 0.30
     Davidson diagonalization with overlap
     ethr =  7.00E-12,  avg # of iterations =  4.7

     total cpu time spent up to now is     4178.4 secs

     total energy              =     -70.42656528 Ry
     estimated scf accuracy    <          3.1E-09 Ry

     iteration # 14     ecut=    80.00 Ry     beta= 0.30
     Davidson diagonalization with overlap
     ethr =  7.00E-12,  avg # of iterations =  3.3

     total cpu time spent up to now is     4209.5 secs

     total energy              =     -70.42656529 Ry
     estimated scf accuracy    <          1.5E-11 Ry

     iteration # 15     ecut=    80.00 Ry     beta= 0.30
     Davidson diagonalization with overlap
     ethr =  1.00E-13,  avg # of iterations =  5.2

     total cpu time spent up to now is     4248.8 secs

     total energy              =     -70.42656529 Ry
     estimated scf accuracy    <          4.1E-12 Ry

     iteration # 16     ecut=    80.00 Ry     beta= 0.30
     Davidson diagonalization with overlap
     ethr =  1.00E-13,  avg # of iterations =  1.9

     total cpu time spent up to now is     4274.4 secs

     End of self-consistent calculation

     Number of k-points >= 100: set verbosity='high' to print the bands.

     the Fermi energy is     3.6385 ev

!    total energy              =     -70.42656529 Ry
     estimated scf accuracy    <          6.9E-13 Ry
     smearing contrib. (-TS)   =      -0.00010921 Ry
     internal energy E=F+TS    =     -70.42645608 Ry

     The total energy is F=E-TS. E is the sum of the following terms:
     one-electron contribution =     -23.58603731 Ry
     hartree contribution      =      16.91217698 Ry
     xc contribution           =     -18.68737845 Ry
     ewald contribution        =     -45.06521730 Ry

     convergence has been achieved in  16 iterations

     Forces acting on atoms (cartesian axes, Ry/au):

     atom    1 type  1   force =     0.00000004    0.00000012   -0.00000008
     atom    2 type  2   force =     0.00000003    0.00000011   -0.00000008
     atom    3 type  3   force =    -0.00031813    0.00032003    0.00031483
     atom    4 type  3   force =     0.00031827   -0.00031946   -0.00031526
     atom    5 type  3   force =     0.00014080   -0.00014037    0.00003853
     atom    6 type  3   force =    -0.00014062    0.00014007   -0.00003830
     atom    7 type  3   force =    -0.00004012   -0.00014097   -0.00014234
     atom    8 type  3   force =     0.00004003    0.00014080    0.00014234
     atom    9 type  3   force =     0.00014153    0.00004074   -0.00014249
     atom   10 type  3   force =    -0.00014184   -0.00004106    0.00014285

     Total force =     0.000925     Total SCF correction =     0.000000


     Computing stress (Cartesian axis) and pressure

          total   stress  (Ry/bohr**3)                   (kbar)     P=      110.15
   0.00074879  -0.00006506  -0.00006506          110.15       -9.57       -9.57
  -0.00006506   0.00074879   0.00006506           -9.57      110.15        9.57
  -0.00006506   0.00006506   0.00074878           -9.57        9.57      110.15


     Writing output data file ./out/kbeh8.save/

     init_run     :     20.34s CPU     21.15s WALL (       2 calls)
     electrons    :   4021.07s CPU   4114.89s WALL (      22 calls)
     update_pot   :     20.03s CPU     20.05s WALL (      20 calls)
     forces       :     46.76s CPU     47.40s WALL (      22 calls)
     stress       :     79.58s CPU     79.86s WALL (      22 calls)

     Called by init_run:
     wfcinit      :     17.66s CPU     18.42s WALL (       2 calls)
     potinit      :      0.89s CPU      0.89s WALL (       2 calls)
     hinit0       :      1.62s CPU      1.63s WALL (       2 calls)

     Called by electrons:
     c_bands      :   3592.72s CPU   3673.03s WALL (     277 calls)
     sum_band     :    415.72s CPU    428.69s WALL (     277 calls)
     v_of_rho     :      2.87s CPU      3.05s WALL (     295 calls)
     newd         :     10.09s CPU     10.39s WALL (     295 calls)
     mix_rho      :      0.30s CPU      0.33s WALL (     277 calls)

     Called by c_bands:
     init_us_2    :     57.19s CPU     58.26s WALL (  520800 calls)
     cegterg      :   3478.64s CPU   3557.19s WALL (  240436 calls)

     Called by *egterg:
     cdiaghg      :    160.02s CPU    162.10s WALL ( 1112303 calls)
     h_psi        :   2268.94s CPU   2336.91s WALL ( 1134871 calls)
     s_psi        :    224.44s CPU    227.86s WALL ( 1134871 calls)
     g_psi        :     13.27s CPU     13.35s WALL (  892699 calls)

     Called by h_psi:
     h_psi:calbec :    283.16s CPU    291.90s WALL ( 1134871 calls)
     vloc_psi     :   1754.58s CPU   1809.22s WALL ( 1134871 calls)
     add_vuspsi   :    224.47s CPU    229.13s WALL ( 1134871 calls)

     General routines
     calbec       :    412.10s CPU    424.39s WALL ( 1470787 calls)
     fft          :      1.91s CPU      2.15s WALL (    4365 calls)
     ffts         :      0.08s CPU      0.09s WALL (     572 calls)
     fftw         :   1750.92s CPU   1805.70s WALL (23699154 calls)
     interpolate  :      0.15s CPU      0.18s WALL (     295 calls)

     Parallel routines
     fft_scatt_xy :    196.43s CPU    202.88s WALL (23704091 calls)
     fft_scatt_yz :    512.67s CPU    531.98s WALL (23704091 calls)

     PWSCF        :      1h 9m CPU      1h11m WALL


   This run was terminated on:   5:53: 1  31May2026            

=------------------------------------------------------------------------------=
   JOB DONE.
=------------------------------------------------------------------------------=
