
     Program PHONON v.6.7MaX starts on 31May2026 at 16:22: 1 

     This program is part of the open-source Quantum ESPRESSO suite
     for quantum simulation of materials; please cite
         "P. Giannozzi et al., J. Phys.:Condens. Matter 21 395502 (2009);
         "P. Giannozzi et al., J. Phys.:Condens. Matter 29 465901 (2017);
          URL http://www.quantum-espresso.org", 
     in publications or presentations arising from this work. More details at
     http://www.quantum-espresso.org/quote

     Parallel version (MPI), running on     5 processors

     MPI processes distributed on     1 nodes
     R & G space division:  proc/nbgrp/npool/nimage =       5
     Reading input from ph.in
     Message from routine ph_restart_set_filename :
     cannot open file for reading or writing
     Message from routine ph_restart_set_filename :
     cannot open file for reading or writing
     Run is not recoverable starting from scratch

     Reading xml data from directory:

     ./out/yauh3.save/
     file Y.pbe-spn-rrkjus_psl.1.0.0.UPF: wavefunction(s)  4S renormalized

     IMPORTANT: XC functional enforced from input :
     Exchange-correlation= PBE
                           (   1   4   3   4   0   0   0)
     Any further DFT definition will be discarded
     Please, verify this is what you really want


     Parallelization info
     --------------------
     sticks:   dense  smooth     PW     G-vecs:    dense   smooth      PW
     Min         517     260     74                19677     6977    1098
     Max         517     262     75                19677     6978    1101
     Sum        2585    1305    373                98385    34889    5497

     Reading collected, re-writing distributed wavefunctions


     Dynamical matrices for ( 4, 4, 4)  uniform grid of q-points
     (  10 q-points):
       N         xq(1)         xq(2)         xq(3) 
       1   0.000000000   0.000000000   0.000000000
       2  -0.000000003  -0.000000004   0.250000000
       3   0.000000006   0.000000008  -0.500000000
       4   0.000000001   0.249999996   0.249999996
       5   0.000000010   0.250000008  -0.500000004
       6  -0.000000001  -0.499999992  -0.499999992
       7   0.250000001   0.250000000   0.249999993
       8   0.250000010   0.250000011  -0.500000007
       9   0.249999999  -0.499999989  -0.499999995
      10  -0.500000001  -0.500000000  -0.499999986

     Saving dvscf to file. Distribute only q points, not irreducible represetations.

     Calculation of q =    0.0000000   0.0000000   0.0000000

     YAuH3 phonon + electron-phonon 4x4x4 q (RTSC A15 · SrAuH3 Y-variant · per

     bravais-lattice index     =            0
     lattice parameter (alat)  =       7.1130  a.u.
     unit-cell volume          =     359.8756 (a.u.)^3
     number of atoms/cell      =            5
     number of atomic types    =            3
     kinetic-energy cut-off    =      80.0000  Ry
     charge density cut-off    =     640.0000  Ry
     convergence threshold     =      1.0E-14
     beta                      =       0.7000
     number of iterations used =            4
     Exchange-correlation= PBE
                           (   1   4   3   4   0   0   0)


     celldm(1)=    7.11297  celldm(2)=    0.00000  celldm(3)=    0.00000
     celldm(4)=    0.00000  celldm(5)=    0.00000  celldm(6)=    0.00000

     crystal axes: (cart. coord. in units of alat)
               a(1) = (  1.0000 -0.0000  0.0000 )  
               a(2) = ( -0.0000  1.0000  0.0000 )  
               a(3) = (  0.0000  0.0000  1.0000 )  

     reciprocal axes: (cart. coord. in units 2 pi/alat)
               b(1) = (  1.0000  0.0000 -0.0000 )  
               b(2) = (  0.0000  1.0000 -0.0000 )  
               b(3) = ( -0.0000 -0.0000  1.0000 )  


     Atoms inside the unit cell: 

     Cartesian axes

     site n.  atom      mass           positions (alat units)
        1     Y   88.9060   tau(    1) = (    0.50000    0.50000    0.50000  )
        2     Au 196.9670   tau(    2) = (    0.00000    0.00000   -0.00000  )
        3     H    1.0080   tau(    3) = (    0.50000   -0.00000    0.00000  )
        4     H    1.0080   tau(    4) = (   -0.00000    0.50000    0.00000  )
        5     H    1.0080   tau(    5) = (   -0.00000    0.00000    0.50000  )

     Computing dynamical matrix for 
                    q = (   0.0000000   0.0000000   0.0000000 )

     49 Sym.Ops. (with q -> -q+G )


     G cutoff =  820.2039  (  19677 G-vectors)     FFT grid: ( 60, 60, 60)
     G cutoff =  410.1019  (   6978 G-vectors)  smooth grid: ( 45, 45, 45)

     number of k points=   165  Methfessel-Paxton smearing, width (Ry)=  0.0200

     PseudoPot. # 1 for Y  read from file:
     ./pseudo/Y.pbe-spn-rrkjus_psl.1.0.0.UPF
     MD5 check sum: d801e27cd54ae79b7791715f927f78c5
     Pseudo is Ultrasoft + core correction, Zval = 11.0
     Generated using &quot;atomic&quot; code by A. Dal Corso  v.6.2.2
     Using radial grid of 1223 points,  6 beta functions with: 
                l(1) =   0
                l(2) =   0
                l(3) =   1
                l(4) =   1
                l(5) =   2
                l(6) =   2
     Q(r) pseudized with 0 coefficients 


     PseudoPot. # 2 for Au read from file:
     ./pseudo/Au.pbe-n-rrkjus_psl.1.0.0.UPF
     MD5 check sum: 36a5134bc4f0d73a839546df15754897
     Pseudo is Ultrasoft + core correction, Zval = 11.0
     Generated using &quot;atomic&quot; code by A. Dal Corso  v.6.3
     Using radial grid of 1279 points,  6 beta functions with: 
                l(1) =   0
                l(2) =   0
                l(3) =   1
                l(4) =   1
                l(5) =   2
                l(6) =   2
     Q(r) pseudized with 0 coefficients 


     PseudoPot. # 3 for H  read from file:
     ./pseudo/H.pbe-rrkjus_psl.1.0.0.UPF
     MD5 check sum: 9e615844a0e642e0aee8526d0d0f65f7
     Pseudo is Ultrasoft, Zval =  1.0
     Generated using &quot;atomic&quot; code by A. Dal Corso  v.6.3MaX
     Using radial grid of  929 points,  2 beta functions with: 
                l(1) =   0
                l(2) =   0
     Q(r) pseudized with 0 coefficients 


     Mode symmetry, O_h (m-3m)  point group:


     Atomic displacements:
     There are    5 irreducible representations

     Representation     1      3 modes -  To be done

     Representation     2      3 modes -  To be done

     Representation     3      3 modes -  To be done

     Representation     4      3 modes -  To be done

     Representation     5      3 modes -  To be done



     Alpha used in Ewald sum =   2.8000
     PHONON       :     16.59s CPU     17.89s WALL



     Representation #   1 modes #   1   2   3

     Self-consistent Calculation

     Pert. #  1: Fermi energy shift (Ry) =    -4.9545E-26     0.0000E+00
     Pert. #  2: Fermi energy shift (Ry) =    -6.4623E-27    -7.8366E-38
     Pert. #  3: Fermi energy shift (Ry) =    -6.4623E-27    -1.0971E-37

      iter #   1 total cpu time :    52.9 secs   av.it.:   5.1
      thresh= 1.000E-02 alpha_mix =  0.700 |ddv_scf|^2 =  3.846E-09

     Pert. #  1: Fermi energy shift (Ry) =    -6.2873E-26    -1.2245E-40
     Pert. #  2: Fermi energy shift (Ry) =    -6.4623E-27    -4.5918E-41
     Pert. #  3: Fermi energy shift (Ry) =     7.1086E-26     1.8367E-40

      iter #   2 total cpu time :   136.7 secs   av.it.:  17.9
      thresh= 6.202E-06 alpha_mix =  0.700 |ddv_scf|^2 =  6.947E-10

     Pert. #  1: Fermi energy shift (Ry) =    -1.3463E-25     4.3048E-42
     Pert. #  2: Fermi energy shift (Ry) =    -3.3820E-25    -6.1224E-41
     Pert. #  3: Fermi energy shift (Ry) =     2.4772E-26     1.3393E-41

      iter #   3 total cpu time :   214.4 secs   av.it.:  17.4
      thresh= 2.636E-06 alpha_mix =  0.700 |ddv_scf|^2 =  5.830E-12

     Pert. #  1: Fermi energy shift (Ry) =    -1.9683E-25     4.0731E-43
     Pert. #  2: Fermi energy shift (Ry) =    -2.3695E-26     1.4947E-42
     Pert. #  3: Fermi energy shift (Ry) =    -1.4433E-25    -7.1746E-43

      iter #   4 total cpu time :   295.4 secs   av.it.:  17.4
      thresh= 2.415E-07 alpha_mix =  0.700 |ddv_scf|^2 =  7.039E-14

     Pert. #  1: Fermi energy shift (Ry) =    -1.7327E-25     1.4387E-43
     Pert. #  2: Fermi energy shift (Ry) =    -7.7548E-26    -1.7937E-43
     Pert. #  3: Fermi energy shift (Ry) =    -5.7084E-26    -2.9894E-43

      iter #   5 total cpu time :   376.8 secs   av.it.:  16.6
      thresh= 2.653E-08 alpha_mix =  0.700 |ddv_scf|^2 =  1.317E-15

     End of self-consistent calculation

     Convergence has been achieved 


     Representation #   2 modes #   4   5   6

     Self-consistent Calculation

     Pert. #  1: Fermi energy shift (Ry) =    -1.8202E-25    -1.7632E-38
     Pert. #  2: Fermi energy shift (Ry) =    -5.1806E-25     4.6775E-38
     Pert. #  3: Fermi energy shift (Ry) =     1.3786E-25    -3.9183E-39

      iter #   1 total cpu time :   433.6 secs   av.it.:   8.4
      thresh= 1.000E-02 alpha_mix =  0.700 |ddv_scf|^2 =  3.320E-07

     Pert. #  1: Fermi energy shift (Ry) =    -4.4698E-26     7.6530E-42
     Pert. #  2: Fermi energy shift (Ry) =     1.9845E-25    -2.1620E-40
     Pert. #  3: Fermi energy shift (Ry) =    -4.9975E-25    -6.7346E-40

      iter #   2 total cpu time :   517.1 secs   av.it.:  17.6
      thresh= 5.762E-05 alpha_mix =  0.700 |ddv_scf|^2 =  7.343E-08

     Pert. #  1: Fermi energy shift (Ry) =    -1.3867E-26     5.3571E-40
     Pert. #  2: Fermi energy shift (Ry) =    -9.1954E-26    -2.8699E-41
     Pert. #  3: Fermi energy shift (Ry) =     1.4002E-25     0.0000E+00

      iter #   3 total cpu time :   597.3 secs   av.it.:  17.3
      thresh= 2.710E-05 alpha_mix =  0.700 |ddv_scf|^2 =  9.043E-11

     Pert. #  1: Fermi energy shift (Ry) =    -8.3472E-27     2.0328E-41
     Pert. #  2: Fermi energy shift (Ry) =     1.4291E-25     3.8564E-42
     Pert. #  3: Fermi energy shift (Ry) =    -2.5849E-26    -2.8699E-42

      iter #   4 total cpu time :   683.2 secs   av.it.:  17.5
      thresh= 9.509E-07 alpha_mix =  0.700 |ddv_scf|^2 =  5.673E-12

     Pert. #  1: Fermi energy shift (Ry) =     1.1780E-25     1.1958E-42
     Pert. #  2: Fermi energy shift (Ry) =     1.2837E-25     7.4736E-43
     Pert. #  3: Fermi energy shift (Ry) =    -6.4623E-26     4.7831E-43

      iter #   5 total cpu time :   765.7 secs   av.it.:  18.0
      thresh= 2.382E-07 alpha_mix =  0.700 |ddv_scf|^2 =  5.677E-14

     Pert. #  1: Fermi energy shift (Ry) =     1.1444E-26    -1.1958E-43
     Pert. #  2: Fermi energy shift (Ry) =     7.0143E-26    -1.2047E-41
     Pert. #  3: Fermi energy shift (Ry) =     7.7548E-26    -5.2614E-42

      iter #   6 total cpu time :   847.3 secs   av.it.:  17.6
      thresh= 2.383E-08 alpha_mix =  0.700 |ddv_scf|^2 =  8.997E-16

     End of self-consistent calculation

     Convergence has been achieved 


     Representation #   3 modes #   7   8   9

     Self-consistent Calculation

     Pert. #  1: Fermi energy shift (Ry) =    -8.0510E-26     3.1347E-37
     Pert. #  2: Fermi energy shift (Ry) =     4.4967E-26    -6.5632E-38
     Pert. #  3: Fermi energy shift (Ry) =     9.9089E-26    -9.4040E-38

      iter #   1 total cpu time :   903.7 secs   av.it.:   8.6
      thresh= 1.000E-02 alpha_mix =  0.700 |ddv_scf|^2 =  2.911E-07

     Pert. #  1: Fermi energy shift (Ry) =     6.1392E-26    -6.1224E-41
     Pert. #  2: Fermi energy shift (Ry) =     1.8310E-26    -3.9604E-40
     Pert. #  3: Fermi energy shift (Ry) =     3.4466E-26    -7.9591E-40

      iter #   2 total cpu time :   982.8 secs   av.it.:  17.8
      thresh= 5.396E-05 alpha_mix =  0.700 |ddv_scf|^2 =  5.763E-08

     Pert. #  1: Fermi energy shift (Ry) =    -2.4772E-26    -6.4285E-40
     Pert. #  2: Fermi energy shift (Ry) =     1.5213E-25    -6.6772E-40
     Pert. #  3: Fermi energy shift (Ry) =    -2.5849E-26     3.0612E-40

      iter #   3 total cpu time :  1062.4 secs   av.it.:  17.3
      thresh= 2.401E-05 alpha_mix =  0.700 |ddv_scf|^2 =  2.566E-10

     Pert. #  1: Fermi energy shift (Ry) =    -7.7548E-26    -1.1958E-43
     Pert. #  2: Fermi energy shift (Ry) =    -4.3082E-27     5.3212E-42
     Pert. #  3: Fermi energy shift (Ry) =     8.6165E-27     1.2436E-41

      iter #   4 total cpu time :  1148.8 secs   av.it.:  17.8
      thresh= 1.602E-06 alpha_mix =  0.700 |ddv_scf|^2 =  1.078E-11

     Pert. #  1: Fermi energy shift (Ry) =    -1.1309E-26     1.4349E-42
     Pert. #  2: Fermi energy shift (Ry) =    -1.1417E-25     0.0000E+00
     Pert. #  3: Fermi energy shift (Ry) =     8.6165E-26    -1.5844E-42

      iter #   5 total cpu time :  1234.3 secs   av.it.:  17.0
      thresh= 3.284E-07 alpha_mix =  0.700 |ddv_scf|^2 =  7.614E-14

     Pert. #  1: Fermi energy shift (Ry) =    -4.6852E-26     1.0762E-42
     Pert. #  2: Fermi energy shift (Ry) =    -2.6657E-26     8.7441E-43
     Pert. #  3: Fermi energy shift (Ry) =     6.0315E-26     2.8699E-42

      iter #   6 total cpu time :  1315.0 secs   av.it.:  17.4
      thresh= 2.759E-08 alpha_mix =  0.700 |ddv_scf|^2 =  9.573E-16

     End of self-consistent calculation

     Convergence has been achieved 


     Representation #   4 modes #  10  11  12

     Self-consistent Calculation

     Pert. #  1: Fermi energy shift (Ry) =    -1.8472E-25     1.0266E-36
     Pert. #  2: Fermi energy shift (Ry) =    -3.1450E-25    -1.6927E-36
     Pert. #  3: Fermi energy shift (Ry) =    -1.2925E-25     7.8366E-37

      iter #   1 total cpu time :  1352.1 secs   av.it.:   5.0
      thresh= 1.000E-02 alpha_mix =  0.700 |ddv_scf|^2 =  4.628E-09

     Pert. #  1: Fermi energy shift (Ry) =    -2.0545E-25     4.7831E-41
     Pert. #  2: Fermi energy shift (Ry) =    -9.9089E-26    -6.1224E-41
     Pert. #  3: Fermi energy shift (Ry) =     1.3140E-25     1.1479E-40

      iter #   2 total cpu time :  1439.9 secs   av.it.:  17.5
      thresh= 6.803E-06 alpha_mix =  0.700 |ddv_scf|^2 =  9.327E-10

     Pert. #  1: Fermi energy shift (Ry) =    -3.2743E-25     2.4394E-41
     Pert. #  2: Fermi energy shift (Ry) =    -1.2925E-26     2.0663E-40
     Pert. #  3: Fermi energy shift (Ry) =     5.8161E-26    -1.9898E-40

      iter #   3 total cpu time :  1523.5 secs   av.it.:  17.4
      thresh= 3.054E-06 alpha_mix =  0.700 |ddv_scf|^2 =  3.832E-12

     Pert. #  1: Fermi energy shift (Ry) =    -4.7014E-25    -3.6471E-42
     Pert. #  2: Fermi energy shift (Ry) =     8.1856E-26     0.0000E+00
     Pert. #  3: Fermi energy shift (Ry) =     1.1417E-25    -6.6963E-42

      iter #   4 total cpu time :  1605.9 secs   av.it.:  17.2
      thresh= 1.958E-07 alpha_mix =  0.700 |ddv_scf|^2 =  2.380E-13

     Pert. #  1: Fermi energy shift (Ry) =    -6.6078E-25    -6.8757E-43
     Pert. #  2: Fermi energy shift (Ry) =     4.2221E-25     7.1746E-43
     Pert. #  3: Fermi energy shift (Ry) =     3.0158E-26    -8.9683E-42

      iter #   5 total cpu time :  1687.8 secs   av.it.:  17.0
      thresh= 4.879E-08 alpha_mix =  0.700 |ddv_scf|^2 =  2.910E-15

     End of self-consistent calculation

     Convergence has been achieved 


     Representation #   5 modes #  13  14  15

     Self-consistent Calculation

     Pert. #  1: Fermi energy shift (Ry) =    -3.4466E-25     2.3314E-37
     Pert. #  2: Fermi energy shift (Ry) =     1.1029E-24     1.5673E-37
     Pert. #  3: Fermi energy shift (Ry) =    -2.0680E-24    -4.7020E-38

      iter #   1 total cpu time :  1725.0 secs   av.it.:   4.6
      thresh= 1.000E-02 alpha_mix =  0.700 |ddv_scf|^2 =  6.483E-10

     Pert. #  1: Fermi energy shift (Ry) =    -1.8310E-26    -2.8459E-41
     Pert. #  2: Fermi energy shift (Ry) =    -1.7233E-26     6.8877E-41
     Pert. #  3: Fermi energy shift (Ry) =     1.7233E-26     4.2091E-41

      iter #   2 total cpu time :  1804.2 secs   av.it.:  17.2
      thresh= 2.546E-06 alpha_mix =  0.700 |ddv_scf|^2 =  1.567E-11

     Pert. #  1: Fermi energy shift (Ry) =     3.9851E-26     8.9085E-42
     Pert. #  2: Fermi energy shift (Ry) =     8.6165E-27     3.8265E-41
     Pert. #  3: Fermi energy shift (Ry) =     5.1699E-26     1.9132E-42

      iter #   3 total cpu time :  1886.5 secs   av.it.:  17.1
      thresh= 3.959E-07 alpha_mix =  0.700 |ddv_scf|^2 =  2.410E-13

     Pert. #  1: Fermi energy shift (Ry) =     1.7233E-26     6.5581E-43
     Pert. #  2: Fermi energy shift (Ry) =    -6.0315E-26     4.1852E-43
     Pert. #  3: Fermi energy shift (Ry) =    -2.5849E-26    -5.6799E-43

      iter #   4 total cpu time :  1963.9 secs   av.it.:  15.9
      thresh= 4.909E-08 alpha_mix =  0.700 |ddv_scf|^2 =  4.987E-16

     End of self-consistent calculation

     Convergence has been achieved 

     Number of q in the star =    1
     List of q in the star:
          1   0.000000000   0.000000000   0.000000000

     Diagonalizing the dynamical matrix

     q = (    0.000000000   0.000000000   0.000000000 ) 

 **************************************************************************
     freq (    1) =      -5.101601 [THz] =    -170.171101 [cm-1]
     freq (    2) =      -5.101601 [THz] =    -170.171095 [cm-1]
     freq (    3) =      -5.101601 [THz] =    -170.171095 [cm-1]
     freq (    4) =       0.384985 [THz] =      12.841713 [cm-1]
     freq (    5) =       0.384985 [THz] =      12.841713 [cm-1]
     freq (    6) =       0.384985 [THz] =      12.841714 [cm-1]
     freq (    7) =       3.053126 [THz] =     101.841326 [cm-1]
     freq (    8) =       3.053126 [THz] =     101.841326 [cm-1]
     freq (    9) =       3.053126 [THz] =     101.841330 [cm-1]
     freq (   10) =       6.988656 [THz] =     233.116473 [cm-1]
     freq (   11) =       6.988656 [THz] =     233.116478 [cm-1]
     freq (   12) =       6.988656 [THz] =     233.116478 [cm-1]
     freq (   13) =      35.204330 [THz] =    1174.290038 [cm-1]
     freq (   14) =      35.204330 [THz] =    1174.290052 [cm-1]
     freq (   15) =      35.204330 [THz] =    1174.290053 [cm-1]
 **************************************************************************

     Mode symmetry, O_h (m-3m)  point group:

     freq (   1-   3) =       -170.2  [cm-1]   --> T_1u G_15  G_4- I  
     freq (   4-   6) =         12.8  [cm-1]   --> T_1u G_15  G_4- I  
     freq (   7-   9) =        101.8  [cm-1]   --> T_1u G_15  G_4- I  
     freq (  10-  12) =        233.1  [cm-1]   --> T_2u G_25  G_5-    
     freq (  13-  15) =       1174.3  [cm-1]   --> T_1u G_15  G_4- I  

     Gaussian Broadening:   0.005 Ry, ngauss=   0
     DOS = 26.775013 states/spin/Ry/Unit Cell at Ef= 13.117705 eV
     double delta at Ef =**********
     lambda(    1)= -0.0353   gamma=   23.48 GHz
     lambda(    2)= -0.0353   gamma=   23.48 GHz
     lambda(    3)= -0.0353   gamma=   23.48 GHz
     lambda(    4)=  0.0000   gamma=    0.02 GHz
     lambda(    5)=  0.0000   gamma=    0.02 GHz
     lambda(    6)=  0.0000   gamma=    0.02 GHz
     lambda(    7)=  0.0046   gamma=    1.10 GHz
     lambda(    8)=  0.0046   gamma=    1.10 GHz
     lambda(    9)=  0.0046   gamma=    1.10 GHz
     lambda(   10)=  0.0203   gamma=   25.40 GHz
     lambda(   11)=  0.0203   gamma=   25.40 GHz
     lambda(   12)=  0.0203   gamma=   25.40 GHz
     lambda(   13)=  0.0001   gamma=    1.69 GHz
     lambda(   14)=  0.0001   gamma=    1.69 GHz
     lambda(   15)=  0.0001   gamma=    1.69 GHz

     Gaussian Broadening:   0.010 Ry, ngauss=   0
     DOS = 24.464465 states/spin/Ry/Unit Cell at Ef= 13.116062 eV
     double delta at Ef =**********
     lambda(    1)= -0.1457   gamma=   88.57 GHz
     lambda(    2)= -0.1457   gamma=   88.57 GHz
     lambda(    3)= -0.1457   gamma=   88.57 GHz
     lambda(    4)=  0.0000   gamma=    0.09 GHz
     lambda(    5)=  0.0000   gamma=    0.09 GHz
     lambda(    6)=  0.0000   gamma=    0.09 GHz
     lambda(    7)=  0.0120   gamma=    2.62 GHz
     lambda(    8)=  0.0120   gamma=    2.62 GHz
     lambda(    9)=  0.0120   gamma=    2.62 GHz
     lambda(   10)=  0.0800   gamma=   91.34 GHz
     lambda(   11)=  0.0800   gamma=   91.34 GHz
     lambda(   12)=  0.0800   gamma=   91.34 GHz
     lambda(   13)=  0.0001   gamma=    4.29 GHz
     lambda(   14)=  0.0001   gamma=    4.29 GHz
     lambda(   15)=  0.0001   gamma=    4.29 GHz

     Gaussian Broadening:   0.015 Ry, ngauss=   0
     DOS = 22.212139 states/spin/Ry/Unit Cell at Ef= 13.116806 eV
     double delta at Ef =**********
     lambda(    1)= -0.2195   gamma=  121.16 GHz
     lambda(    2)= -0.2195   gamma=  121.16 GHz
     lambda(    3)= -0.2195   gamma=  121.16 GHz
     lambda(    4)=  0.0000   gamma=    0.13 GHz
     lambda(    5)=  0.0000   gamma=    0.13 GHz
     lambda(    6)=  0.0000   gamma=    0.13 GHz
     lambda(    7)=  0.0154   gamma=    3.05 GHz
     lambda(    8)=  0.0154   gamma=    3.05 GHz
     lambda(    9)=  0.0154   gamma=    3.05 GHz
     lambda(   10)=  0.1198   gamma=  124.13 GHz
     lambda(   11)=  0.1198   gamma=  124.13 GHz
     lambda(   12)=  0.1198   gamma=  124.13 GHz
     lambda(   13)=  0.0002   gamma=    4.75 GHz
     lambda(   14)=  0.0002   gamma=    4.75 GHz
     lambda(   15)=  0.0002   gamma=    4.75 GHz

     Gaussian Broadening:   0.020 Ry, ngauss=   0
     DOS = 20.547333 states/spin/Ry/Unit Cell at Ef= 13.115833 eV
     double delta at Ef =935.066336
     lambda(    1)= -0.2571   gamma=  131.30 GHz
     lambda(    2)= -0.2571   gamma=  131.30 GHz
     lambda(    3)= -0.2571   gamma=  131.30 GHz
     lambda(    4)=  0.0000   gamma=    0.14 GHz
     lambda(    5)=  0.0000   gamma=    0.14 GHz
     lambda(    6)=  0.0000   gamma=    0.14 GHz
     lambda(    7)=  0.0183   gamma=    3.36 GHz
     lambda(    8)=  0.0183   gamma=    3.36 GHz
     lambda(    9)=  0.0183   gamma=    3.36 GHz
     lambda(   10)=  0.1410   gamma=  135.09 GHz
     lambda(   11)=  0.1410   gamma=  135.09 GHz
     lambda(   12)=  0.1410   gamma=  135.09 GHz
     lambda(   13)=  0.0002   gamma=    5.04 GHz
     lambda(   14)=  0.0002   gamma=    5.04 GHz
     lambda(   15)=  0.0002   gamma=    5.04 GHz

     Gaussian Broadening:   0.025 Ry, ngauss=   0
     DOS = 19.125460 states/spin/Ry/Unit Cell at Ef= 13.113508 eV
     double delta at Ef =744.772487
     lambda(    1)= -0.2808   gamma=  133.47 GHz
     lambda(    2)= -0.2808   gamma=  133.47 GHz
     lambda(    3)= -0.2808   gamma=  133.47 GHz
     lambda(    4)=  0.0000   gamma=    0.14 GHz
     lambda(    5)=  0.0000   gamma=    0.14 GHz
     lambda(    6)=  0.0000   gamma=    0.14 GHz
     lambda(    7)=  0.0210   gamma=    3.57 GHz
     lambda(    8)=  0.0210   gamma=    3.57 GHz
     lambda(    9)=  0.0210   gamma=    3.57 GHz
     lambda(   10)=  0.1551   gamma=  138.37 GHz
     lambda(   11)=  0.1551   gamma=  138.37 GHz
     lambda(   12)=  0.1551   gamma=  138.37 GHz
     lambda(   13)=  0.0002   gamma=    5.33 GHz
     lambda(   14)=  0.0002   gamma=    5.33 GHz
     lambda(   15)=  0.0002   gamma=    5.33 GHz

     Gaussian Broadening:   0.030 Ry, ngauss=   0
     DOS = 17.960614 states/spin/Ry/Unit Cell at Ef= 13.109622 eV
     double delta at Ef =625.107742
     lambda(    1)= -0.2988   gamma=  133.37 GHz
     lambda(    2)= -0.2988   gamma=  133.37 GHz
     lambda(    3)= -0.2988   gamma=  133.37 GHz
     lambda(    4)=  0.0000   gamma=    0.15 GHz
     lambda(    5)=  0.0000   gamma=    0.15 GHz
     lambda(    6)=  0.0000   gamma=    0.15 GHz
     lambda(    7)=  0.0233   gamma=    3.73 GHz
     lambda(    8)=  0.0233   gamma=    3.73 GHz
     lambda(    9)=  0.0233   gamma=    3.73 GHz
     lambda(   10)=  0.1657   gamma=  138.76 GHz
     lambda(   11)=  0.1657   gamma=  138.76 GHz
     lambda(   12)=  0.1657   gamma=  138.76 GHz
     lambda(   13)=  0.0003   gamma=    5.80 GHz
     lambda(   14)=  0.0003   gamma=    5.80 GHz
     lambda(   15)=  0.0003   gamma=    5.80 GHz

     Gaussian Broadening:   0.035 Ry, ngauss=   0
     DOS = 17.017716 states/spin/Ry/Unit Cell at Ef= 13.104112 eV
     double delta at Ef =544.470103
     lambda(    1)= -0.3171   gamma=  134.10 GHz
     lambda(    2)= -0.3171   gamma=  134.10 GHz
     lambda(    3)= -0.3171   gamma=  134.10 GHz
     lambda(    4)=  0.0000   gamma=    0.16 GHz
     lambda(    5)=  0.0000   gamma=    0.16 GHz
     lambda(    6)=  0.0000   gamma=    0.16 GHz
     lambda(    7)=  0.0256   gamma=    3.88 GHz
     lambda(    8)=  0.0256   gamma=    3.88 GHz
     lambda(    9)=  0.0256   gamma=    3.88 GHz
     lambda(   10)=  0.1750   gamma=  138.89 GHz
     lambda(   11)=  0.1750   gamma=  138.89 GHz
     lambda(   12)=  0.1750   gamma=  138.89 GHz
     lambda(   13)=  0.0003   gamma=    6.70 GHz
     lambda(   14)=  0.0003   gamma=    6.70 GHz
     lambda(   15)=  0.0003   gamma=    6.70 GHz

     Gaussian Broadening:   0.040 Ry, ngauss=   0
     DOS = 16.268086 states/spin/Ry/Unit Cell at Ef= 13.097346 eV
     double delta at Ef =486.792651
     lambda(    1)= -0.3365   gamma=  136.06 GHz
     lambda(    2)= -0.3365   gamma=  136.06 GHz
     lambda(    3)= -0.3365   gamma=  136.06 GHz
     lambda(    4)=  0.0000   gamma=    0.18 GHz
     lambda(    5)=  0.0000   gamma=    0.18 GHz
     lambda(    6)=  0.0000   gamma=    0.18 GHz
     lambda(    7)=  0.0279   gamma=    4.04 GHz
     lambda(    8)=  0.0279   gamma=    4.04 GHz
     lambda(    9)=  0.0279   gamma=    4.04 GHz
     lambda(   10)=  0.1840   gamma=  139.57 GHz
     lambda(   11)=  0.1840   gamma=  139.57 GHz
     lambda(   12)=  0.1840   gamma=  139.57 GHz
     lambda(   13)=  0.0004   gamma=    8.02 GHz
     lambda(   14)=  0.0004   gamma=    8.02 GHz
     lambda(   15)=  0.0004   gamma=    8.02 GHz

     Gaussian Broadening:   0.045 Ry, ngauss=   0
     DOS = 15.671746 states/spin/Ry/Unit Cell at Ef= 13.089784 eV
     double delta at Ef =443.052614
     lambda(    1)= -0.3555   gamma=  138.48 GHz
     lambda(    2)= -0.3555   gamma=  138.48 GHz
     lambda(    3)= -0.3555   gamma=  138.48 GHz
     lambda(    4)=  0.0000   gamma=    0.20 GHz
     lambda(    5)=  0.0000   gamma=    0.20 GHz
     lambda(    6)=  0.0000   gamma=    0.20 GHz
     lambda(    7)=  0.0300   gamma=    4.19 GHz
     lambda(    8)=  0.0300   gamma=    4.19 GHz
     lambda(    9)=  0.0300   gamma=    4.19 GHz
     lambda(   10)=  0.1923   gamma=  140.57 GHz
     lambda(   11)=  0.1923   gamma=  140.57 GHz
     lambda(   12)=  0.1923   gamma=  140.57 GHz
     lambda(   13)=  0.0005   gamma=    9.61 GHz
     lambda(   14)=  0.0005   gamma=    9.61 GHz
     lambda(   15)=  0.0005   gamma=    9.61 GHz

     Gaussian Broadening:   0.050 Ry, ngauss=   0
     DOS = 15.179603 states/spin/Ry/Unit Cell at Ef= 13.081784 eV
     double delta at Ef =408.146637
     lambda(    1)= -0.3729   gamma=  140.68 GHz
     lambda(    2)= -0.3729   gamma=  140.68 GHz
     lambda(    3)= -0.3729   gamma=  140.68 GHz
     lambda(    4)=  0.0000   gamma=    0.22 GHz
     lambda(    5)=  0.0000   gamma=    0.22 GHz
     lambda(    6)=  0.0000   gamma=    0.22 GHz
     lambda(    7)=  0.0318   gamma=    4.30 GHz
     lambda(    8)=  0.0318   gamma=    4.30 GHz
     lambda(    9)=  0.0318   gamma=    4.30 GHz
     lambda(   10)=  0.1999   gamma=  141.53 GHz
     lambda(   11)=  0.1999   gamma=  141.53 GHz
     lambda(   12)=  0.1999   gamma=  141.53 GHz
     lambda(   13)=  0.0006   gamma=   11.31 GHz
     lambda(   14)=  0.0006   gamma=   11.31 GHz
     lambda(   15)=  0.0006   gamma=   11.31 GHz

     Calculation of q =   -0.0000000  -0.0000000   0.2500000

     Subspace diagonalization in iterative solution of the eigenvalue problem:
     one sub-group per band group will be used
     scalapack distributed-memory algorithm (size of sub-group:  2*  2 procs)


     Parallelization info
     --------------------
     sticks:   dense  smooth     PW     G-vecs:    dense   smooth      PW
     Min         517     260     77                19677     6977    1147
     Max         517     262     77                19677     6978    1149
     Sum        2585    1305    385                98385    34889    5743


     Title: 
     YAuH3 phonon + electron-phonon 4x4x4 q (RTSC A15 · SrAuH3 Y-variant · per


     bravais-lattice index     =            0
     lattice parameter (alat)  =       7.1130  a.u.
     unit-cell volume          =     359.8756 (a.u.)^3
     number of atoms/cell      =            5
     number of atomic types    =            3
     number of electrons       =        25.00
     number of Kohn-Sham states=           17
     kinetic-energy cutoff     =      80.0000  Ry
     charge density cutoff     =     640.0000  Ry
     Exchange-correlation= PBE
                           (   1   4   3   4   0   0   0)

     celldm(1)=   7.112967  celldm(2)=   0.000000  celldm(3)=   0.000000
     celldm(4)=   0.000000  celldm(5)=   0.000000  celldm(6)=   0.000000

     crystal axes: (cart. coord. in units of alat)
               a(1) = (   1.000000  -0.000000   0.000000 )  
               a(2) = (  -0.000000   1.000000   0.000000 )  
               a(3) = (   0.000000   0.000000   1.000000 )  

     reciprocal axes: (cart. coord. in units 2 pi/alat)
               b(1) = (  1.000000  0.000000 -0.000000 )  
               b(2) = (  0.000000  1.000000 -0.000000 )  
               b(3) = ( -0.000000 -0.000000  1.000000 )  


     PseudoPot. # 1 for Y  read from file:
     ./pseudo/Y.pbe-spn-rrkjus_psl.1.0.0.UPF
     MD5 check sum: d801e27cd54ae79b7791715f927f78c5
     Pseudo is Ultrasoft + core correction, Zval = 11.0
     Generated using &quot;atomic&quot; code by A. Dal Corso  v.6.2.2
     Using radial grid of 1223 points,  6 beta functions with: 
                l(1) =   0
                l(2) =   0
                l(3) =   1
                l(4) =   1
                l(5) =   2
                l(6) =   2
     Q(r) pseudized with 0 coefficients 


     PseudoPot. # 2 for Au read from file:
     ./pseudo/Au.pbe-n-rrkjus_psl.1.0.0.UPF
     MD5 check sum: 36a5134bc4f0d73a839546df15754897
     Pseudo is Ultrasoft + core correction, Zval = 11.0
     Generated using &quot;atomic&quot; code by A. Dal Corso  v.6.3
     Using radial grid of 1279 points,  6 beta functions with: 
                l(1) =   0
                l(2) =   0
                l(3) =   1
                l(4) =   1
                l(5) =   2
                l(6) =   2
     Q(r) pseudized with 0 coefficients 


     PseudoPot. # 3 for H  read from file:
     ./pseudo/H.pbe-rrkjus_psl.1.0.0.UPF
     MD5 check sum: 9e615844a0e642e0aee8526d0d0f65f7
     Pseudo is Ultrasoft, Zval =  1.0
     Generated using &quot;atomic&quot; code by A. Dal Corso  v.6.3MaX
     Using radial grid of  929 points,  2 beta functions with: 
                l(1) =   0
                l(2) =   0
     Q(r) pseudized with 0 coefficients 


     atomic species   valence    mass     pseudopotential
        Y             11.00    88.90600     Y ( 1.00)
        Au            11.00   196.96700     Au( 1.00)
        H              1.00     1.00800     H ( 1.00)

     48 Sym. Ops., with inversion, found



   Cartesian axes

     site n.     atom                  positions (alat units)
         1           Y   tau(   1) = (   0.5000000   0.5000000   0.5000000  )
         2           Au  tau(   2) = (   0.0000000   0.0000000  -0.0000000  )
         3           H   tau(   3) = (   0.5000000  -0.0000000   0.0000000  )
         4           H   tau(   4) = (  -0.0000000   0.5000000   0.0000000  )
         5           H   tau(   5) = (  -0.0000000   0.0000000   0.5000000  )

     number of k points=  1440  Methfessel-Paxton smearing, width (Ry)=  0.0200

     Number of k-points >= 100: set verbosity='high' to print them.

     Dense  grid:    98385 G-vectors     FFT dimensions: (  60,  60,  60)

     Smooth grid:    34889 G-vectors     FFT dimensions: (  45,  45,  45)

     Estimated max dynamical RAM per process >      70.79 MB

     Estimated total dynamical RAM >     353.96 MB

     The potential is recalculated from file :
     ./out/_ph0/yauh3.q_2/yauh3.save/charge-density

     Starting wfcs are   25 atomic wfcs

     Band Structure Calculation
     Davidson diagonalization with overlap

     ethr =  4.00E-11,  avg # of iterations = 31.3

     total cpu time spent up to now is      398.5 secs

     End of band structure calculation

     Number of k-points >= 100: set verbosity='high' to print the bands.

     the Fermi energy is    13.1158 ev

     Writing output data file ./out/_ph0/yauh3.q_2/yauh3.save/
WARNING(FoX)
emitting non-ASCII character. Platform-dependent result!
WARNING(FoX)
emitting non-ASCII character. Platform-dependent result!
WARNING(FoX)
emitting non-ASCII character. Platform-dependent result!
WARNING(FoX)
emitting non-ASCII character. Platform-dependent result!

     YAuH3 phonon + electron-phonon 4x4x4 q (RTSC A15 · SrAuH3 Y-variant · per

     bravais-lattice index     =            0
     lattice parameter (alat)  =       7.1130  a.u.
     unit-cell volume          =     359.8756 (a.u.)^3
     number of atoms/cell      =            5
     number of atomic types    =            3
     kinetic-energy cut-off    =      80.0000  Ry
     charge density cut-off    =     640.0000  Ry
     convergence threshold     =      1.0E-14
     beta                      =       0.7000
     number of iterations used =            4
     Exchange-correlation= PBE
                           (   1   4   3   4   0   0   0)


     celldm(1)=    7.11297  celldm(2)=    0.00000  celldm(3)=    0.00000
     celldm(4)=    0.00000  celldm(5)=    0.00000  celldm(6)=    0.00000

     crystal axes: (cart. coord. in units of alat)
               a(1) = (  1.0000 -0.0000  0.0000 )  
               a(2) = ( -0.0000  1.0000  0.0000 )  
               a(3) = (  0.0000  0.0000  1.0000 )  

     reciprocal axes: (cart. coord. in units 2 pi/alat)
               b(1) = (  1.0000  0.0000 -0.0000 )  
               b(2) = (  0.0000  1.0000 -0.0000 )  
               b(3) = ( -0.0000 -0.0000  1.0000 )  


     Atoms inside the unit cell: 

     Cartesian axes

     site n.  atom      mass           positions (alat units)
        1     Y   88.9060   tau(    1) = (    0.50000    0.50000    0.50000  )
        2     Au 196.9670   tau(    2) = (    0.00000    0.00000   -0.00000  )
        3     H    1.0080   tau(    3) = (    0.50000   -0.00000    0.00000  )
        4     H    1.0080   tau(    4) = (   -0.00000    0.50000    0.00000  )
        5     H    1.0080   tau(    5) = (   -0.00000    0.00000    0.50000  )

     Computing dynamical matrix for 
                    q = (  -0.0000000  -0.0000000   0.2500000 )

      8 Sym.Ops. (no q -> -q+G )


     G cutoff =  820.2039  (  19677 G-vectors)     FFT grid: ( 60, 60, 60)
     G cutoff =  410.1019  (   6978 G-vectors)  smooth grid: ( 45, 45, 45)

     number of k points=  1440  Methfessel-Paxton smearing, width (Ry)=  0.0200

     PseudoPot. # 1 for Y  read from file:
     ./pseudo/Y.pbe-spn-rrkjus_psl.1.0.0.UPF
     MD5 check sum: d801e27cd54ae79b7791715f927f78c5
     Pseudo is Ultrasoft + core correction, Zval = 11.0
     Generated using &quot;atomic&quot; code by A. Dal Corso  v.6.2.2
     Using radial grid of 1223 points,  6 beta functions with: 
                l(1) =   0
                l(2) =   0
                l(3) =   1
                l(4) =   1
                l(5) =   2
                l(6) =   2
     Q(r) pseudized with 0 coefficients 


     PseudoPot. # 2 for Au read from file:
     ./pseudo/Au.pbe-n-rrkjus_psl.1.0.0.UPF
     MD5 check sum: 36a5134bc4f0d73a839546df15754897
     Pseudo is Ultrasoft + core correction, Zval = 11.0
     Generated using &quot;atomic&quot; code by A. Dal Corso  v.6.3
     Using radial grid of 1279 points,  6 beta functions with: 
                l(1) =   0
                l(2) =   0
                l(3) =   1
                l(4) =   1
                l(5) =   2
                l(6) =   2
     Q(r) pseudized with 0 coefficients 


     PseudoPot. # 3 for H  read from file:
     ./pseudo/H.pbe-rrkjus_psl.1.0.0.UPF
     MD5 check sum: 9e615844a0e642e0aee8526d0d0f65f7
     Pseudo is Ultrasoft, Zval =  1.0
     Generated using &quot;atomic&quot; code by A. Dal Corso  v.6.3MaX
     Using radial grid of  929 points,  2 beta functions with: 
                l(1) =   0
                l(2) =   0
     Q(r) pseudized with 0 coefficients 


     Mode symmetry, C_4v (4mm)  point group:


     Atomic displacements:
     There are   10 irreducible representations

     Representation     1      1 modes -  To be done

     Representation     2      1 modes -  To be done

     Representation     3      1 modes -  To be done

     Representation     4      1 modes -  To be done

     Representation     5      1 modes -  To be done

     Representation     6      2 modes -  To be done

     Representation     7      2 modes -  To be done

     Representation     8      2 modes -  To be done

     Representation     9      2 modes -  To be done

     Representation    10      2 modes -  To be done



     Alpha used in Ewald sum =   2.8000
     PHONON       :  36m52.28s CPU  40m30.86s WALL



     Representation #   1 mode #   1

     Self-consistent Calculation

      iter #   1 total cpu time :  2509.1 secs   av.it.:  10.4
      thresh= 1.000E-02 alpha_mix =  0.700 |ddv_scf|^2 =  2.189E-02

      iter #   2 total cpu time :  2626.8 secs   av.it.:  15.7
      thresh= 1.000E-02 alpha_mix =  0.700 |ddv_scf|^2 =  1.930E+01

      iter #   3 total cpu time :  2736.6 secs   av.it.:  15.8
      thresh= 1.000E-02 alpha_mix =  0.700 |ddv_scf|^2 =  1.193E-03

      iter #   4 total cpu time :  2832.8 secs   av.it.:  13.0
      thresh= 3.454E-03 alpha_mix =  0.700 |ddv_scf|^2 =  1.214E-03

      iter #   5 total cpu time :  2921.2 secs   av.it.:  12.2
      thresh= 3.485E-03 alpha_mix =  0.700 |ddv_scf|^2 =  6.315E-07

      iter #   6 total cpu time :  3032.2 secs   av.it.:  15.9
      thresh= 7.947E-05 alpha_mix =  0.700 |ddv_scf|^2 =  2.501E-08

      iter #   7 total cpu time :  3138.4 secs   av.it.:  15.4
      thresh= 1.582E-05 alpha_mix =  0.700 |ddv_scf|^2 =  8.090E-08

      iter #   8 total cpu time :  3208.2 secs   av.it.:   9.2
      thresh= 2.844E-05 alpha_mix =  0.700 |ddv_scf|^2 =  3.841E-09

      iter #   9 total cpu time :  3297.2 secs   av.it.:  11.9
      thresh= 6.198E-06 alpha_mix =  0.700 |ddv_scf|^2 =  1.457E-11

      iter #  10 total cpu time :  3406.6 secs   av.it.:  15.9
      thresh= 3.817E-07 alpha_mix =  0.700 |ddv_scf|^2 =  3.311E-10

      iter #  11 total cpu time :  3489.2 secs   av.it.:  11.0
      thresh= 1.820E-06 alpha_mix =  0.700 |ddv_scf|^2 =  7.708E-12

      iter #  12 total cpu time :  3586.0 secs   av.it.:  13.2
      thresh= 2.776E-07 alpha_mix =  0.700 |ddv_scf|^2 =  1.479E-12

      iter #  13 total cpu time :  3676.2 secs   av.it.:  12.7
      thresh= 1.216E-07 alpha_mix =  0.700 |ddv_scf|^2 =  3.051E-13

      iter #  14 total cpu time :  3773.2 secs   av.it.:  13.3
      thresh= 5.523E-08 alpha_mix =  0.700 |ddv_scf|^2 =  1.669E-12

      iter #  15 total cpu time :  3850.9 secs   av.it.:   9.9
      thresh= 1.292E-07 alpha_mix =  0.700 |ddv_scf|^2 =  4.845E-14

      iter #  16 total cpu time :  3947.6 secs   av.it.:  12.8
      thresh= 2.201E-08 alpha_mix =  0.700 |ddv_scf|^2 =  1.509E-14

      iter #  17 total cpu time :  4031.0 secs   av.it.:  12.2
      thresh= 1.228E-08 alpha_mix =  0.700 |ddv_scf|^2 =  1.313E-16

     End of self-consistent calculation

     Convergence has been achieved 


     Representation #   2 mode #   2

     Self-consistent Calculation

      iter #   1 total cpu time :  4092.9 secs   av.it.:   6.1
      thresh= 1.000E-02 alpha_mix =  0.700 |ddv_scf|^2 =  4.528E-04

      iter #   2 total cpu time :  4199.5 secs   av.it.:  15.1
      thresh= 2.128E-03 alpha_mix =  0.700 |ddv_scf|^2 =  4.062E-01

      iter #   3 total cpu time :  4289.1 secs   av.it.:  12.3
      thresh= 1.000E-02 alpha_mix =  0.700 |ddv_scf|^2 =  2.971E-07

      iter #   4 total cpu time :  4411.0 secs   av.it.:  17.0
      thresh= 5.451E-05 alpha_mix =  0.700 |ddv_scf|^2 =  1.646E-05

      iter #   5 total cpu time :  4504.9 secs   av.it.:  12.2
      thresh= 4.057E-04 alpha_mix =  0.700 |ddv_scf|^2 =  1.530E-08

      iter #   6 total cpu time :  4617.0 secs   av.it.:  14.8
      thresh= 1.237E-05 alpha_mix =  0.700 |ddv_scf|^2 =  1.789E-10

      iter #   7 total cpu time :  4730.2 secs   av.it.:  15.8
      thresh= 1.337E-06 alpha_mix =  0.700 |ddv_scf|^2 =  3.209E-09

      iter #   8 total cpu time :  4795.5 secs   av.it.:   8.9
      thresh= 5.665E-06 alpha_mix =  0.700 |ddv_scf|^2 =  1.808E-10

      iter #   9 total cpu time :  4881.2 secs   av.it.:  11.0
      thresh= 1.345E-06 alpha_mix =  0.700 |ddv_scf|^2 =  5.756E-12

      iter #  10 total cpu time :  4972.2 secs   av.it.:  13.0
      thresh= 2.399E-07 alpha_mix =  0.700 |ddv_scf|^2 =  1.296E-12

      iter #  11 total cpu time :  5062.0 secs   av.it.:  13.1
      thresh= 1.139E-07 alpha_mix =  0.700 |ddv_scf|^2 =  8.143E-14

      iter #  12 total cpu time :  5148.4 secs   av.it.:  12.6
      thresh= 2.854E-08 alpha_mix =  0.700 |ddv_scf|^2 =  2.763E-14

      iter #  13 total cpu time :  5232.3 secs   av.it.:  11.4
      thresh= 1.662E-08 alpha_mix =  0.700 |ddv_scf|^2 =  2.739E-15

     End of self-consistent calculation

     Convergence has been achieved 


     Representation #   3 mode #   3

     Self-consistent Calculation

      iter #   1 total cpu time :  5317.9 secs   av.it.:  10.1
      thresh= 1.000E-02 alpha_mix =  0.700 |ddv_scf|^2 =  2.523E-02

      iter #   2 total cpu time :  5427.1 secs   av.it.:  15.9
      thresh= 1.000E-02 alpha_mix =  0.700 |ddv_scf|^2 =  2.254E+01

      iter #   3 total cpu time :  5537.1 secs   av.it.:  16.0
      thresh= 1.000E-02 alpha_mix =  0.700 |ddv_scf|^2 =  1.045E-04

      iter #   4 total cpu time :  5641.3 secs   av.it.:  14.7
      thresh= 1.022E-03 alpha_mix =  0.700 |ddv_scf|^2 =  3.533E-04

      iter #   5 total cpu time :  5736.3 secs   av.it.:  12.8
      thresh= 1.880E-03 alpha_mix =  0.700 |ddv_scf|^2 =  1.335E-05

      iter #   6 total cpu time :  5828.0 secs   av.it.:  12.6
      thresh= 3.653E-04 alpha_mix =  0.700 |ddv_scf|^2 =  1.319E-07

      iter #   7 total cpu time :  5923.1 secs   av.it.:  13.2
      thresh= 3.631E-05 alpha_mix =  0.700 |ddv_scf|^2 =  6.369E-08

      iter #   8 total cpu time :  6007.3 secs   av.it.:  11.3
      thresh= 2.524E-05 alpha_mix =  0.700 |ddv_scf|^2 =  1.160E-07

      iter #   9 total cpu time :  6073.6 secs   av.it.:   9.8
      thresh= 3.405E-05 alpha_mix =  0.700 |ddv_scf|^2 =  3.618E-11

      iter #  10 total cpu time :  6161.4 secs   av.it.:  13.2
      thresh= 6.015E-07 alpha_mix =  0.700 |ddv_scf|^2 =  3.804E-11

      iter #  11 total cpu time :  6244.3 secs   av.it.:  11.5
      thresh= 6.168E-07 alpha_mix =  0.700 |ddv_scf|^2 =  6.777E-13

      iter #  12 total cpu time :  6338.5 secs   av.it.:  14.4
      thresh= 8.232E-08 alpha_mix =  0.700 |ddv_scf|^2 =  7.645E-14

      iter #  13 total cpu time :  6432.0 secs   av.it.:  13.8
      thresh= 2.765E-08 alpha_mix =  0.700 |ddv_scf|^2 =  3.010E-15

     End of self-consistent calculation

     Convergence has been achieved 


     Representation #   4 mode #   4

     Self-consistent Calculation

      iter #   1 total cpu time :  6488.3 secs   av.it.:   5.7
      thresh= 1.000E-02 alpha_mix =  0.700 |ddv_scf|^2 =  1.786E-04

      iter #   2 total cpu time :  6594.4 secs   av.it.:  15.0
      thresh= 1.337E-03 alpha_mix =  0.700 |ddv_scf|^2 =  1.574E-01

      iter #   3 total cpu time :  6679.8 secs   av.it.:  11.5
      thresh= 1.000E-02 alpha_mix =  0.700 |ddv_scf|^2 =  1.018E-05

      iter #   4 total cpu time :  6777.7 secs   av.it.:  13.7
      thresh= 3.191E-04 alpha_mix =  0.700 |ddv_scf|^2 =  1.530E-05

      iter #   5 total cpu time :  6863.1 secs   av.it.:  12.3
      thresh= 3.911E-04 alpha_mix =  0.700 |ddv_scf|^2 =  1.210E-08

      iter #   6 total cpu time :  6963.0 secs   av.it.:  14.8
      thresh= 1.100E-05 alpha_mix =  0.700 |ddv_scf|^2 =  4.692E-10

      iter #   7 total cpu time :  7063.6 secs   av.it.:  15.2
      thresh= 2.166E-06 alpha_mix =  0.700 |ddv_scf|^2 =  1.532E-09

      iter #   8 total cpu time :  7129.9 secs   av.it.:   9.2
      thresh= 3.914E-06 alpha_mix =  0.700 |ddv_scf|^2 =  1.767E-10

      iter #   9 total cpu time :  7206.0 secs   av.it.:  10.9
      thresh= 1.329E-06 alpha_mix =  0.700 |ddv_scf|^2 =  1.054E-11

      iter #  10 total cpu time :  7287.1 secs   av.it.:  12.5
      thresh= 3.247E-07 alpha_mix =  0.700 |ddv_scf|^2 =  7.567E-13

      iter #  11 total cpu time :  7364.4 secs   av.it.:  12.2
      thresh= 8.699E-08 alpha_mix =  0.700 |ddv_scf|^2 =  3.136E-14

      iter #  12 total cpu time :  7460.5 secs   av.it.:  13.7
      thresh= 1.771E-08 alpha_mix =  0.700 |ddv_scf|^2 =  7.652E-14

      iter #  13 total cpu time :  7535.1 secs   av.it.:  11.3
      thresh= 2.766E-08 alpha_mix =  0.700 |ddv_scf|^2 =  6.022E-15

     End of self-consistent calculation

     Convergence has been achieved 


     Representation #   5 mode #   5

     Self-consistent Calculation

      iter #   1 total cpu time :  7580.0 secs   av.it.:   4.4
      thresh= 1.000E-02 alpha_mix =  0.700 |ddv_scf|^2 =  1.230E-08

      iter #   2 total cpu time :  7679.6 secs   av.it.:  15.2
      thresh= 1.109E-05 alpha_mix =  0.700 |ddv_scf|^2 =  1.198E-09

      iter #   3 total cpu time :  7780.3 secs   av.it.:  15.4
      thresh= 3.461E-06 alpha_mix =  0.700 |ddv_scf|^2 =  7.085E-11

      iter #   4 total cpu time :  7880.7 secs   av.it.:  15.1
      thresh= 8.417E-07 alpha_mix =  0.700 |ddv_scf|^2 =  1.988E-12

      iter #   5 total cpu time :  7987.4 secs   av.it.:  15.2
      thresh= 1.410E-07 alpha_mix =  0.700 |ddv_scf|^2 =  5.200E-14

      iter #   6 total cpu time :  8087.6 secs   av.it.:  14.9
      thresh= 2.280E-08 alpha_mix =  0.700 |ddv_scf|^2 =  2.872E-16

     End of self-consistent calculation

     Convergence has been achieved 


     Representation #   6 modes #   6   7

     Self-consistent Calculation

      iter #   1 total cpu time :  8172.7 secs   av.it.:   4.6
      thresh= 1.000E-02 alpha_mix =  0.700 |ddv_scf|^2 =  5.010E-09

      iter #   2 total cpu time :  8391.4 secs   av.it.:  17.0
      thresh= 7.078E-06 alpha_mix =  0.700 |ddv_scf|^2 =  6.862E-10

      iter #   3 total cpu time :  8613.6 secs   av.it.:  16.9
      thresh= 2.619E-06 alpha_mix =  0.700 |ddv_scf|^2 =  8.349E-12

      iter #   4 total cpu time :  8843.8 secs   av.it.:  17.4
      thresh= 2.890E-07 alpha_mix =  0.700 |ddv_scf|^2 =  4.374E-13

      iter #   5 total cpu time :  9063.6 secs   av.it.:  17.1
      thresh= 6.614E-08 alpha_mix =  0.700 |ddv_scf|^2 =  1.395E-14

      iter #   6 total cpu time :  9287.0 secs   av.it.:  16.6
      thresh= 1.181E-08 alpha_mix =  0.700 |ddv_scf|^2 =  1.180E-16

     End of self-consistent calculation

     Convergence has been achieved 


     Representation #   7 modes #   8   9

     Self-consistent Calculation

      iter #   1 total cpu time :  9386.0 secs   av.it.:   5.0
      thresh= 1.000E-02 alpha_mix =  0.700 |ddv_scf|^2 =  7.901E-09

      iter #   2 total cpu time :  9611.4 secs   av.it.:  17.1
      thresh= 8.889E-06 alpha_mix =  0.700 |ddv_scf|^2 =  1.124E-09

      iter #   3 total cpu time :  9828.9 secs   av.it.:  17.0
      thresh= 3.353E-06 alpha_mix =  0.700 |ddv_scf|^2 =  1.019E-11

      iter #   4 total cpu time : 10051.8 secs   av.it.:  17.3
      thresh= 3.192E-07 alpha_mix =  0.700 |ddv_scf|^2 =  3.790E-13

      iter #   5 total cpu time : 10276.5 secs   av.it.:  17.1
      thresh= 6.156E-08 alpha_mix =  0.700 |ddv_scf|^2 =  1.399E-14

      iter #   6 total cpu time : 10498.6 secs   av.it.:  16.6
      thresh= 1.183E-08 alpha_mix =  0.700 |ddv_scf|^2 =  9.485E-17

     End of self-consistent calculation

     Convergence has been achieved 


     Representation #   8 modes #  10  11

     Self-consistent Calculation

      iter #   1 total cpu time : 10645.3 secs   av.it.:   8.3
      thresh= 1.000E-02 alpha_mix =  0.700 |ddv_scf|^2 =  6.479E-07

      iter #   2 total cpu time : 10865.3 secs   av.it.:  17.0
      thresh= 8.050E-05 alpha_mix =  0.700 |ddv_scf|^2 =  1.129E-07

      iter #   3 total cpu time : 11087.9 secs   av.it.:  16.8
      thresh= 3.360E-05 alpha_mix =  0.700 |ddv_scf|^2 =  1.880E-10

      iter #   4 total cpu time : 11320.8 secs   av.it.:  17.2
      thresh= 1.371E-06 alpha_mix =  0.700 |ddv_scf|^2 =  1.135E-11

      iter #   5 total cpu time : 11537.6 secs   av.it.:  17.3
      thresh= 3.369E-07 alpha_mix =  0.700 |ddv_scf|^2 =  1.689E-13

      iter #   6 total cpu time : 11764.7 secs   av.it.:  17.2
      thresh= 4.110E-08 alpha_mix =  0.700 |ddv_scf|^2 =  3.880E-15

     End of self-consistent calculation

     Convergence has been achieved 


     Representation #   9 modes #  12  13

     Self-consistent Calculation

      iter #   1 total cpu time : 11863.6 secs   av.it.:   4.6
      thresh= 1.000E-02 alpha_mix =  0.700 |ddv_scf|^2 =  4.940E-09

      iter #   2 total cpu time : 12093.2 secs   av.it.:  17.1
      thresh= 7.029E-06 alpha_mix =  0.700 |ddv_scf|^2 =  5.306E-10

      iter #   3 total cpu time : 12308.4 secs   av.it.:  17.1
      thresh= 2.304E-06 alpha_mix =  0.700 |ddv_scf|^2 =  1.411E-11

      iter #   4 total cpu time : 12524.0 secs   av.it.:  17.0
      thresh= 3.757E-07 alpha_mix =  0.700 |ddv_scf|^2 =  2.329E-13

      iter #   5 total cpu time : 12727.3 secs   av.it.:  16.8
      thresh= 4.826E-08 alpha_mix =  0.700 |ddv_scf|^2 =  4.270E-15

     End of self-consistent calculation

     Convergence has been achieved 


     Representation #  10 modes #  14  15

     Self-consistent Calculation

      iter #   1 total cpu time : 12865.8 secs   av.it.:   8.5
      thresh= 1.000E-02 alpha_mix =  0.700 |ddv_scf|^2 =  5.672E-07

      iter #   2 total cpu time : 13071.3 secs   av.it.:  17.1
      thresh= 7.531E-05 alpha_mix =  0.700 |ddv_scf|^2 =  8.472E-08

      iter #   3 total cpu time : 13284.3 secs   av.it.:  16.9
      thresh= 2.911E-05 alpha_mix =  0.700 |ddv_scf|^2 =  5.140E-10

      iter #   4 total cpu time : 13494.5 secs   av.it.:  17.3
      thresh= 2.267E-06 alpha_mix =  0.700 |ddv_scf|^2 =  2.439E-11

      iter #   5 total cpu time : 13699.0 secs   av.it.:  16.8
      thresh= 4.939E-07 alpha_mix =  0.700 |ddv_scf|^2 =  1.601E-13

      iter #   6 total cpu time : 13906.5 secs   av.it.:  17.1
      thresh= 4.001E-08 alpha_mix =  0.700 |ddv_scf|^2 =  1.717E-15

     End of self-consistent calculation

     Convergence has been achieved 

     Number of q in the star =    6
     List of q in the star:
          1  -0.000000003  -0.000000004   0.250000000
          2   0.000000004   0.250000000  -0.000000004
          3   0.000000003   0.000000004  -0.250000000
          4  -0.000000004  -0.250000000   0.000000004
          5   0.250000000   0.000000004  -0.000000003
          6  -0.250000000  -0.000000004   0.000000003

     Diagonalizing the dynamical matrix

     q = (   -0.000000003  -0.000000004   0.250000000 ) 

 **************************************************************************
     freq (    1) =      -1.034586 [THz] =     -34.510069 [cm-1]
     freq (    2) =      -1.034586 [THz] =     -34.510067 [cm-1]
     freq (    3) =       1.904060 [THz] =      63.512613 [cm-1]
     freq (    4) =       2.338391 [THz] =      78.000328 [cm-1]
     freq (    5) =       2.338391 [THz] =      78.000331 [cm-1]
     freq (    6) =       3.174538 [THz] =     105.891205 [cm-1]
     freq (    7) =       3.242808 [THz] =     108.168422 [cm-1]
     freq (    8) =       3.242808 [THz] =     108.168424 [cm-1]
     freq (    9) =       5.145939 [THz] =     171.650050 [cm-1]
     freq (   10) =       5.522795 [THz] =     184.220626 [cm-1]
     freq (   11) =       5.522796 [THz] =     184.220630 [cm-1]
     freq (   12) =       9.438078 [THz] =     314.820397 [cm-1]
     freq (   13) =      32.992938 [THz] =    1100.525950 [cm-1]
     freq (   14) =      34.696849 [THz] =    1157.362315 [cm-1]
     freq (   15) =      34.696850 [THz] =    1157.362325 [cm-1]
 **************************************************************************

     Mode symmetry, C_4v (4mm)  point group:

     freq (   1-   2) =        -34.5  [cm-1]   --> E    G_5 D_5       
     freq (   3-   3) =         63.5  [cm-1]   --> A_1  G_1 D_1       
     freq (   4-   5) =         78.0  [cm-1]   --> E    G_5 D_5       
     freq (   6-   6) =        105.9  [cm-1]   --> A_1  G_1 D_1       
     freq (   7-   8) =        108.2  [cm-1]   --> E    G_5 D_5       
     freq (   9-   9) =        171.7  [cm-1]   --> A_1  G_1 D_1       
     freq (  10-  11) =        184.2  [cm-1]   --> E    G_5 D_5       
     freq (  12-  12) =        314.8  [cm-1]   --> B_1  G_3 D_2       
     freq (  13-  13) =       1100.5  [cm-1]   --> A_1  G_1 D_1       
     freq (  14-  15) =       1157.4  [cm-1]   --> E    G_5 D_5       

     Gaussian Broadening:   0.005 Ry, ngauss=   0
     DOS = 26.775118 states/spin/Ry/Unit Cell at Ef= 13.117705 eV
     double delta at Ef =**********
     lambda(    1)= -1.8228   gamma=   49.89 GHz
     lambda(    2)= -1.8228   gamma=   49.89 GHz
     lambda(    3)=  1.1412   gamma=  105.78 GHz
     lambda(    4)=  0.2576   gamma=   36.01 GHz
     lambda(    5)=  0.2576   gamma=   36.01 GHz
     lambda(    6)=  0.2224   gamma=   57.31 GHz
     lambda(    7)=  1.1080   gamma=  297.91 GHz
     lambda(    8)=  1.1080   gamma=  297.91 GHz
     lambda(    9)=  0.7634   gamma=  516.90 GHz
     lambda(   10)=  0.7356   gamma=  573.68 GHz
     lambda(   11)=  0.7356   gamma=  573.68 GHz
     lambda(   12)=  0.2213   gamma=  504.11 GHz
     lambda(   13)=  0.0145   gamma=  403.63 GHz
     lambda(   14)=  0.0079   gamma=  243.22 GHz
     lambda(   15)=  0.0079   gamma=  243.22 GHz

     Gaussian Broadening:   0.010 Ry, ngauss=   0
     DOS = 24.464506 states/spin/Ry/Unit Cell at Ef= 13.116062 eV
     double delta at Ef =**********
     lambda(    1)= -1.7662   gamma=   44.17 GHz
     lambda(    2)= -1.7662   gamma=   44.17 GHz
     lambda(    3)=  0.8094   gamma=   68.55 GHz
     lambda(    4)=  0.2340   gamma=   29.89 GHz
     lambda(    5)=  0.2340   gamma=   29.89 GHz
     lambda(    6)=  0.1653   gamma=   38.93 GHz
     lambda(    7)=  0.8533   gamma=  209.63 GHz
     lambda(    8)=  0.8533   gamma=  209.63 GHz
     lambda(    9)=  0.5580   gamma=  345.23 GHz
     lambda(   10)=  0.5791   gamma=  412.63 GHz
     lambda(   11)=  0.5791   gamma=  412.63 GHz
     lambda(   12)=  0.1310   gamma=  272.69 GHz
     lambda(   13)=  0.0099   gamma=  251.44 GHz
     lambda(   14)=  0.0053   gamma=  149.37 GHz
     lambda(   15)=  0.0053   gamma=  149.37 GHz

     Gaussian Broadening:   0.015 Ry, ngauss=   0
     DOS = 22.212152 states/spin/Ry/Unit Cell at Ef= 13.116806 eV
     double delta at Ef =793.090867
     lambda(    1)= -1.6469   gamma=   37.39 GHz
     lambda(    2)= -1.6469   gamma=   37.39 GHz
     lambda(    3)=  0.6811   gamma=   52.38 GHz
     lambda(    4)=  0.2251   gamma=   26.11 GHz
     lambda(    5)=  0.2251   gamma=   26.11 GHz
     lambda(    6)=  0.1398   gamma=   29.89 GHz
     lambda(    7)=  0.8376   gamma=  186.82 GHz
     lambda(    8)=  0.8376   gamma=  186.82 GHz
     lambda(    9)=  0.4712   gamma=  264.70 GHz
     lambda(   10)=  0.4861   gamma=  314.50 GHz
     lambda(   11)=  0.4861   gamma=  314.50 GHz
     lambda(   12)=  0.1054   gamma=  199.19 GHz
     lambda(   13)=  0.0083   gamma=  192.33 GHz
     lambda(   14)=  0.0042   gamma=  107.39 GHz
     lambda(   15)=  0.0042   gamma=  107.39 GHz

     Gaussian Broadening:   0.020 Ry, ngauss=   0
     DOS = 20.547337 states/spin/Ry/Unit Cell at Ef= 13.115833 eV
     double delta at Ef =665.251052
     lambda(    1)= -1.5689   gamma=   32.95 GHz
     lambda(    2)= -1.5689   gamma=   32.95 GHz
     lambda(    3)=  0.6064   gamma=   43.14 GHz
     lambda(    4)=  0.2205   gamma=   23.65 GHz
     lambda(    5)=  0.2205   gamma=   23.65 GHz
     lambda(    6)=  0.1237   gamma=   24.45 GHz
     lambda(    7)=  0.8200   gamma=  169.20 GHz
     lambda(    8)=  0.8200   gamma=  169.20 GHz
     lambda(    9)=  0.4269   gamma=  221.81 GHz
     lambda(   10)=  0.4321   gamma=  258.58 GHz
     lambda(   11)=  0.4321   gamma=  258.58 GHz
     lambda(   12)=  0.0943   gamma=  164.84 GHz
     lambda(   13)=  0.0077   gamma=  164.82 GHz
     lambda(   14)=  0.0036   gamma=   85.22 GHz
     lambda(   15)=  0.0036   gamma=   85.22 GHz

     Gaussian Broadening:   0.025 Ry, ngauss=   0
     DOS = 19.125461 states/spin/Ry/Unit Cell at Ef= 13.113508 eV
     double delta at Ef =578.811363
     lambda(    1)= -1.5290   gamma=   29.89 GHz
     lambda(    2)= -1.5290   gamma=   29.89 GHz
     lambda(    3)=  0.5578   gamma=   36.93 GHz
     lambda(    4)=  0.2191   gamma=   21.88 GHz
     lambda(    5)=  0.2191   gamma=   21.88 GHz
     lambda(    6)=  0.1128   gamma=   20.75 GHz
     lambda(    7)=  0.8134   gamma=  156.22 GHz
     lambda(    8)=  0.8134   gamma=  156.22 GHz
     lambda(    9)=  0.4095   gamma=  198.06 GHz
     lambda(   10)=  0.4032   gamma=  224.62 GHz
     lambda(   11)=  0.4032   gamma=  224.62 GHz
     lambda(   12)=  0.0915   gamma=  148.85 GHz
     lambda(   13)=  0.0075   gamma=  149.64 GHz
     lambda(   14)=  0.0033   gamma=   72.44 GHz
     lambda(   15)=  0.0033   gamma=   72.44 GHz

     Gaussian Broadening:   0.030 Ry, ngauss=   0
     DOS = 17.960614 states/spin/Ry/Unit Cell at Ef= 13.109622 eV
     double delta at Ef =515.506240
     lambda(    1)= -1.4989   gamma=   27.52 GHz
     lambda(    2)= -1.4989   gamma=   27.52 GHz
     lambda(    3)=  0.5211   gamma=   32.40 GHz
     lambda(    4)=  0.2181   gamma=   20.45 GHz
     lambda(    5)=  0.2181   gamma=   20.45 GHz
     lambda(    6)=  0.1043   gamma=   18.02 GHz
     lambda(    7)=  0.8252   gamma=  148.82 GHz
     lambda(    8)=  0.8252   gamma=  148.82 GHz
     lambda(    9)=  0.4060   gamma=  184.38 GHz
     lambda(   10)=  0.3875   gamma=  202.73 GHz
     lambda(   11)=  0.3875   gamma=  202.73 GHz
     lambda(   12)=  0.0929   gamma=  141.93 GHz
     lambda(   13)=  0.0075   gamma=  140.48 GHz
     lambda(   14)=  0.0031   gamma=   64.38 GHz
     lambda(   15)=  0.0031   gamma=   64.38 GHz

     Gaussian Broadening:   0.035 Ry, ngauss=   0
     DOS = 17.017716 states/spin/Ry/Unit Cell at Ef= 13.104112 eV
     double delta at Ef =467.158316
     lambda(    1)= -1.4717   gamma=   25.60 GHz
     lambda(    2)= -1.4717   gamma=   25.60 GHz
     lambda(    3)=  0.4920   gamma=   28.99 GHz
     lambda(    4)=  0.2168   gamma=   19.26 GHz
     lambda(    5)=  0.2168   gamma=   19.26 GHz
     lambda(    6)=  0.0971   gamma=   15.90 GHz
     lambda(    7)=  0.8551   gamma=  146.13 GHz
     lambda(    8)=  0.8551   gamma=  146.13 GHz
     lambda(    9)=  0.4108   gamma=  176.80 GHz
     lambda(   10)=  0.3795   gamma=  188.09 GHz
     lambda(   11)=  0.3795   gamma=  188.09 GHz
     lambda(   12)=  0.0962   gamma=  139.32 GHz
     lambda(   13)=  0.0076   gamma=  135.25 GHz
     lambda(   14)=  0.0030   gamma=   58.99 GHz
     lambda(   15)=  0.0030   gamma=   58.99 GHz

     Gaussian Broadening:   0.040 Ry, ngauss=   0
     DOS = 16.268086 states/spin/Ry/Unit Cell at Ef= 13.097346 eV
     double delta at Ef =428.969855
     lambda(    1)= -1.4448   gamma=   24.02 GHz
     lambda(    2)= -1.4448   gamma=   24.02 GHz
     lambda(    3)=  0.4685   gamma=   26.39 GHz
     lambda(    4)=  0.2149   gamma=   18.26 GHz
     lambda(    5)=  0.2149   gamma=   18.26 GHz
     lambda(    6)=  0.0908   gamma=   14.21 GHz
     lambda(    7)=  0.8956   gamma=  146.30 GHz
     lambda(    8)=  0.8956   gamma=  146.30 GHz
     lambda(    9)=  0.4210   gamma=  173.19 GHz
     lambda(   10)=  0.3757   gamma=  178.00 GHz
     lambda(   11)=  0.3757   gamma=  178.00 GHz
     lambda(   12)=  0.1002   gamma=  138.62 GHz
     lambda(   13)=  0.0078   gamma=  132.68 GHz
     lambda(   14)=  0.0030   gamma=   55.23 GHz
     lambda(   15)=  0.0030   gamma=   55.23 GHz

     Gaussian Broadening:   0.045 Ry, ngauss=   0
     DOS = 15.671747 states/spin/Ry/Unit Cell at Ef= 13.089784 eV
     double delta at Ef =397.691984
     lambda(    1)= -1.4168   gamma=   22.70 GHz
     lambda(    2)= -1.4168   gamma=   22.70 GHz
     lambda(    3)=  0.4496   gamma=   24.39 GHz
     lambda(    4)=  0.2125   gamma=   17.39 GHz
     lambda(    5)=  0.2125   gamma=   17.39 GHz
     lambda(    6)=  0.0851   gamma=   12.84 GHz
     lambda(    7)=  0.9375   gamma=  147.54 GHz
     lambda(    8)=  0.9375   gamma=  147.54 GHz
     lambda(    9)=  0.4338   gamma=  171.92 GHz
     lambda(   10)=  0.3739   gamma=  170.67 GHz
     lambda(   11)=  0.3739   gamma=  170.67 GHz
     lambda(   12)=  0.1040   gamma=  138.63 GHz
     lambda(   13)=  0.0081   gamma=  131.72 GHz
     lambda(   14)=  0.0029   gamma=   52.44 GHz
     lambda(   15)=  0.0029   gamma=   52.44 GHz

     Gaussian Broadening:   0.050 Ry, ngauss=   0
     DOS = 15.179605 states/spin/Ry/Unit Cell at Ef= 13.081784 eV
     double delta at Ef =371.226114
     lambda(    1)= -1.3887   gamma=   21.55 GHz
     lambda(    2)= -1.3887   gamma=   21.55 GHz
     lambda(    3)=  0.4346   gamma=   22.84 GHz
     lambda(    4)=  0.2098   gamma=   16.63 GHz
     lambda(    5)=  0.2098   gamma=   16.63 GHz
     lambda(    6)=  0.0801   gamma=   11.71 GHz
     lambda(    7)=  0.9760   gamma=  148.77 GHz
     lambda(    8)=  0.9760   gamma=  148.77 GHz
     lambda(    9)=  0.4477   gamma=  171.84 GHz
     lambda(   10)=  0.3732   gamma=  165.00 GHz
     lambda(   11)=  0.3732   gamma=  165.00 GHz
     lambda(   12)=  0.1075   gamma=  138.87 GHz
     lambda(   13)=  0.0083   gamma=  131.65 GHz
     lambda(   14)=  0.0029   gamma=   50.25 GHz
     lambda(   15)=  0.0029   gamma=   50.25 GHz

     Calculation of q =    0.0000000   0.0000000  -0.5000000

     Parallelization info
     --------------------
     sticks:   dense  smooth     PW     G-vecs:    dense   smooth      PW
     Min         517     260     80                19677     6977    1208
     Max         517     262     82                19677     6978    1209
     Sum        2585    1305    405                98385    34889    6043


     Title: 
     YAuH3 phonon + electron-phonon 4x4x4 q (RTSC A15 · SrAuH3 Y-variant · per


     bravais-lattice index     =            0
     lattice parameter (alat)  =       7.1130  a.u.
     unit-cell volume          =     359.8756 (a.u.)^3
     number of atoms/cell      =            5
     number of atomic types    =            3
     number of electrons       =        25.00
     number of Kohn-Sham states=           17
     kinetic-energy cutoff     =      80.0000  Ry
     charge density cutoff     =     640.0000  Ry
     Exchange-correlation= PBE
                           (   1   4   3   4   0   0   0)

     celldm(1)=   7.112967  celldm(2)=   0.000000  celldm(3)=   0.000000
     celldm(4)=   0.000000  celldm(5)=   0.000000  celldm(6)=   0.000000

     crystal axes: (cart. coord. in units of alat)
               a(1) = (   1.000000  -0.000000   0.000000 )  
               a(2) = (  -0.000000   1.000000   0.000000 )  
               a(3) = (   0.000000   0.000000   1.000000 )  

     reciprocal axes: (cart. coord. in units 2 pi/alat)
               b(1) = (  1.000000  0.000000 -0.000000 )  
               b(2) = (  0.000000  1.000000 -0.000000 )  
               b(3) = ( -0.000000 -0.000000  1.000000 )  


     PseudoPot. # 1 for Y  read from file:
     ./pseudo/Y.pbe-spn-rrkjus_psl.1.0.0.UPF
     MD5 check sum: d801e27cd54ae79b7791715f927f78c5
     Pseudo is Ultrasoft + core correction, Zval = 11.0
     Generated using &quot;atomic&quot; code by A. Dal Corso  v.6.2.2
     Using radial grid of 1223 points,  6 beta functions with: 
                l(1) =   0
                l(2) =   0
                l(3) =   1
                l(4) =   1
                l(5) =   2
                l(6) =   2
     Q(r) pseudized with 0 coefficients 


     PseudoPot. # 2 for Au read from file:
     ./pseudo/Au.pbe-n-rrkjus_psl.1.0.0.UPF
     MD5 check sum: 36a5134bc4f0d73a839546df15754897
     Pseudo is Ultrasoft + core correction, Zval = 11.0
     Generated using &quot;atomic&quot; code by A. Dal Corso  v.6.3
     Using radial grid of 1279 points,  6 beta functions with: 
                l(1) =   0
                l(2) =   0
                l(3) =   1
                l(4) =   1
                l(5) =   2
                l(6) =   2
     Q(r) pseudized with 0 coefficients 


     PseudoPot. # 3 for H  read from file:
     ./pseudo/H.pbe-rrkjus_psl.1.0.0.UPF
     MD5 check sum: 9e615844a0e642e0aee8526d0d0f65f7
     Pseudo is Ultrasoft, Zval =  1.0
     Generated using &quot;atomic&quot; code by A. Dal Corso  v.6.3MaX
     Using radial grid of  929 points,  2 beta functions with: 
                l(1) =   0
                l(2) =   0
     Q(r) pseudized with 0 coefficients 


     atomic species   valence    mass     pseudopotential
        Y             11.00    88.90600     Y ( 1.00)
        Au            11.00   196.96700     Au( 1.00)
        H              1.00     1.00800     H ( 1.00)

     48 Sym. Ops., with inversion, found



   Cartesian axes

     site n.     atom                  positions (alat units)
         1           Y   tau(   1) = (   0.5000000   0.5000000   0.5000000  )
         2           Au  tau(   2) = (   0.0000000   0.0000000  -0.0000000  )
         3           H   tau(   3) = (   0.5000000  -0.0000000   0.0000000  )
         4           H   tau(   4) = (  -0.0000000   0.5000000   0.0000000  )
         5           H   tau(   5) = (  -0.0000000   0.0000000   0.5000000  )

     number of k points=   810  Methfessel-Paxton smearing, width (Ry)=  0.0200

     Number of k-points >= 100: set verbosity='high' to print them.

     Dense  grid:    98385 G-vectors     FFT dimensions: (  60,  60,  60)

     Smooth grid:    34889 G-vectors     FFT dimensions: (  45,  45,  45)

     Estimated max dynamical RAM per process >      70.87 MB

     Estimated total dynamical RAM >     354.35 MB

     The potential is recalculated from file :
     ./out/_ph0/yauh3.q_3/yauh3.save/charge-density

     Starting wfcs are   25 atomic wfcs

     Band Structure Calculation
     Davidson diagonalization with overlap

     ethr =  4.00E-11,  avg # of iterations = 30.8

     total cpu time spent up to now is      590.6 secs

     End of band structure calculation

     Number of k-points >= 100: set verbosity='high' to print the bands.

     the Fermi energy is    13.1158 ev

     Writing output data file ./out/_ph0/yauh3.q_3/yauh3.save/
WARNING(FoX)
emitting non-ASCII character. Platform-dependent result!
WARNING(FoX)
emitting non-ASCII character. Platform-dependent result!
WARNING(FoX)
emitting non-ASCII character. Platform-dependent result!
WARNING(FoX)
emitting non-ASCII character. Platform-dependent result!

     YAuH3 phonon + electron-phonon 4x4x4 q (RTSC A15 · SrAuH3 Y-variant · per

     bravais-lattice index     =            0
     lattice parameter (alat)  =       7.1130  a.u.
     unit-cell volume          =     359.8756 (a.u.)^3
     number of atoms/cell      =            5
     number of atomic types    =            3
     kinetic-energy cut-off    =      80.0000  Ry
     charge density cut-off    =     640.0000  Ry
     convergence threshold     =      1.0E-14
     beta                      =       0.7000
     number of iterations used =            4
     Exchange-correlation= PBE
                           (   1   4   3   4   0   0   0)


     celldm(1)=    7.11297  celldm(2)=    0.00000  celldm(3)=    0.00000
     celldm(4)=    0.00000  celldm(5)=    0.00000  celldm(6)=    0.00000

     crystal axes: (cart. coord. in units of alat)
               a(1) = (  1.0000 -0.0000  0.0000 )  
               a(2) = ( -0.0000  1.0000  0.0000 )  
               a(3) = (  0.0000  0.0000  1.0000 )  

     reciprocal axes: (cart. coord. in units 2 pi/alat)
               b(1) = (  1.0000  0.0000 -0.0000 )  
               b(2) = (  0.0000  1.0000 -0.0000 )  
               b(3) = ( -0.0000 -0.0000  1.0000 )  


     Atoms inside the unit cell: 

     Cartesian axes

     site n.  atom      mass           positions (alat units)
        1     Y   88.9060   tau(    1) = (    0.50000    0.50000    0.50000  )
        2     Au 196.9670   tau(    2) = (    0.00000    0.00000   -0.00000  )
        3     H    1.0080   tau(    3) = (    0.50000   -0.00000    0.00000  )
        4     H    1.0080   tau(    4) = (   -0.00000    0.50000    0.00000  )
        5     H    1.0080   tau(    5) = (   -0.00000    0.00000    0.50000  )

     Computing dynamical matrix for 
                    q = (   0.0000000   0.0000000  -0.5000000 )

     17 Sym.Ops. (with q -> -q+G )


     G cutoff =  820.2039  (  19677 G-vectors)     FFT grid: ( 60, 60, 60)
     G cutoff =  410.1019  (   6978 G-vectors)  smooth grid: ( 45, 45, 45)

     number of k points=   810  Methfessel-Paxton smearing, width (Ry)=  0.0200

     PseudoPot. # 1 for Y  read from file:
     ./pseudo/Y.pbe-spn-rrkjus_psl.1.0.0.UPF
     MD5 check sum: d801e27cd54ae79b7791715f927f78c5
     Pseudo is Ultrasoft + core correction, Zval = 11.0
     Generated using &quot;atomic&quot; code by A. Dal Corso  v.6.2.2
     Using radial grid of 1223 points,  6 beta functions with: 
                l(1) =   0
                l(2) =   0
                l(3) =   1
                l(4) =   1
                l(5) =   2
                l(6) =   2
     Q(r) pseudized with 0 coefficients 


     PseudoPot. # 2 for Au read from file:
     ./pseudo/Au.pbe-n-rrkjus_psl.1.0.0.UPF
     MD5 check sum: 36a5134bc4f0d73a839546df15754897
     Pseudo is Ultrasoft + core correction, Zval = 11.0
     Generated using &quot;atomic&quot; code by A. Dal Corso  v.6.3
     Using radial grid of 1279 points,  6 beta functions with: 
                l(1) =   0
                l(2) =   0
                l(3) =   1
                l(4) =   1
                l(5) =   2
                l(6) =   2
     Q(r) pseudized with 0 coefficients 


     PseudoPot. # 3 for H  read from file:
     ./pseudo/H.pbe-rrkjus_psl.1.0.0.UPF
     MD5 check sum: 9e615844a0e642e0aee8526d0d0f65f7
     Pseudo is Ultrasoft, Zval =  1.0
     Generated using &quot;atomic&quot; code by A. Dal Corso  v.6.3MaX
     Using radial grid of  929 points,  2 beta functions with: 
                l(1) =   0
                l(2) =   0
     Q(r) pseudized with 0 coefficients 


     Mode symmetry, D_4h(4/mmm) point group:


     Atomic displacements:
     There are   10 irreducible representations

     Representation     1      1 modes -  To be done

     Representation     2      1 modes -  To be done

     Representation     3      2 modes -  To be done

     Representation     4      2 modes -  To be done

     Representation     5      1 modes -  To be done

     Representation     6      1 modes -  To be done

     Representation     7      1 modes -  To be done

     Representation     8      2 modes -  To be done

     Representation     9      2 modes -  To be done

     Representation    10      2 modes -  To be done



     Alpha used in Ewald sum =   2.8000
     PHONON       :      3h33m CPU      3h55m WALL



     Representation #   1 mode #   1

     Self-consistent Calculation

      iter #   1 total cpu time : 14181.9 secs   av.it.:   9.6
      thresh= 1.000E-02 alpha_mix =  0.700 |ddv_scf|^2 =  1.545E-04

      iter #   2 total cpu time : 14235.4 secs   av.it.:  15.0
      thresh= 1.243E-03 alpha_mix =  0.700 |ddv_scf|^2 =  1.502E-03

      iter #   3 total cpu time : 14281.2 secs   av.it.:  12.8
      thresh= 3.876E-03 alpha_mix =  0.700 |ddv_scf|^2 =  3.052E-06

      iter #   4 total cpu time : 14333.1 secs   av.it.:  14.8
      thresh= 1.747E-04 alpha_mix =  0.700 |ddv_scf|^2 =  1.521E-07

      iter #   5 total cpu time : 14383.6 secs   av.it.:  14.1
      thresh= 3.900E-05 alpha_mix =  0.700 |ddv_scf|^2 =  4.593E-10

      iter #   6 total cpu time : 14435.9 secs   av.it.:  15.1
      thresh= 2.143E-06 alpha_mix =  0.700 |ddv_scf|^2 =  2.373E-11

      iter #   7 total cpu time : 14486.5 secs   av.it.:  14.6
      thresh= 4.871E-07 alpha_mix =  0.700 |ddv_scf|^2 =  8.880E-14

      iter #   8 total cpu time : 14538.1 secs   av.it.:  14.9
      thresh= 2.980E-08 alpha_mix =  0.700 |ddv_scf|^2 =  1.724E-15

     End of self-consistent calculation

     Convergence has been achieved 


     Representation #   2 mode #   2

     Self-consistent Calculation

      iter #   1 total cpu time : 14566.0 secs   av.it.:   5.4
      thresh= 1.000E-02 alpha_mix =  0.700 |ddv_scf|^2 =  1.275E-06

      iter #   2 total cpu time : 14617.9 secs   av.it.:  14.9
      thresh= 1.129E-04 alpha_mix =  0.700 |ddv_scf|^2 =  1.361E-05

      iter #   3 total cpu time : 14663.5 secs   av.it.:  12.8
      thresh= 3.690E-04 alpha_mix =  0.700 |ddv_scf|^2 =  4.752E-09

      iter #   4 total cpu time : 14712.7 secs   av.it.:  14.1
      thresh= 6.893E-06 alpha_mix =  0.700 |ddv_scf|^2 =  6.091E-10

      iter #   5 total cpu time : 14763.2 secs   av.it.:  14.3
      thresh= 2.468E-06 alpha_mix =  0.700 |ddv_scf|^2 =  1.698E-12

      iter #   6 total cpu time : 14815.1 secs   av.it.:  15.0
      thresh= 1.303E-07 alpha_mix =  0.700 |ddv_scf|^2 =  1.156E-14

      iter #   7 total cpu time : 14865.8 secs   av.it.:  14.5
      thresh= 1.075E-08 alpha_mix =  0.700 |ddv_scf|^2 =  1.736E-16

     End of self-consistent calculation

     Convergence has been achieved 


     Representation #   3 modes #   3   4

     Self-consistent Calculation

      iter #   1 total cpu time : 14911.6 secs   av.it.:   4.4
      thresh= 1.000E-02 alpha_mix =  0.700 |ddv_scf|^2 =  4.059E-09

      iter #   2 total cpu time : 15025.2 secs   av.it.:  16.6
      thresh= 6.371E-06 alpha_mix =  0.700 |ddv_scf|^2 =  1.651E-10

      iter #   3 total cpu time : 15139.7 secs   av.it.:  16.7
      thresh= 1.285E-06 alpha_mix =  0.700 |ddv_scf|^2 =  6.947E-12

      iter #   4 total cpu time : 15253.7 secs   av.it.:  16.7
      thresh= 2.636E-07 alpha_mix =  0.700 |ddv_scf|^2 =  2.141E-13

      iter #   5 total cpu time : 15366.8 secs   av.it.:  16.6
      thresh= 4.628E-08 alpha_mix =  0.700 |ddv_scf|^2 =  1.569E-15

     End of self-consistent calculation

     Convergence has been achieved 


     Representation #   4 modes #   5   6

     Self-consistent Calculation

      iter #   1 total cpu time : 15439.2 secs   av.it.:   8.1
      thresh= 1.000E-02 alpha_mix =  0.700 |ddv_scf|^2 =  4.810E-07

      iter #   2 total cpu time : 15552.5 secs   av.it.:  16.6
      thresh= 6.935E-05 alpha_mix =  0.700 |ddv_scf|^2 =  4.480E-08

      iter #   3 total cpu time : 15665.7 secs   av.it.:  16.6
      thresh= 2.117E-05 alpha_mix =  0.700 |ddv_scf|^2 =  2.032E-10

      iter #   4 total cpu time : 15778.2 secs   av.it.:  16.4
      thresh= 1.425E-06 alpha_mix =  0.700 |ddv_scf|^2 =  7.138E-13

      iter #   5 total cpu time : 15891.3 secs   av.it.:  16.5
      thresh= 8.449E-08 alpha_mix =  0.700 |ddv_scf|^2 =  1.089E-14

      iter #   6 total cpu time : 16004.2 secs   av.it.:  16.5
      thresh= 1.044E-08 alpha_mix =  0.700 |ddv_scf|^2 =  1.483E-16

     End of self-consistent calculation

     Convergence has been achieved 


     Representation #   5 mode #   7

     Self-consistent Calculation

      iter #   1 total cpu time : 16037.0 secs   av.it.:   5.7
      thresh= 1.000E-02 alpha_mix =  0.700 |ddv_scf|^2 =  9.539E-06

      iter #   2 total cpu time : 16090.1 secs   av.it.:  15.3
      thresh= 3.089E-04 alpha_mix =  0.700 |ddv_scf|^2 =  3.928E-04

      iter #   3 total cpu time : 16133.5 secs   av.it.:  12.1
      thresh= 1.982E-03 alpha_mix =  0.700 |ddv_scf|^2 =  2.143E-08

      iter #   4 total cpu time : 16183.3 secs   av.it.:  14.1
      thresh= 1.464E-05 alpha_mix =  0.700 |ddv_scf|^2 =  2.787E-09

      iter #   5 total cpu time : 16231.0 secs   av.it.:  13.5
      thresh= 5.279E-06 alpha_mix =  0.700 |ddv_scf|^2 =  9.285E-12

      iter #   6 total cpu time : 16280.6 secs   av.it.:  14.2
      thresh= 3.047E-07 alpha_mix =  0.700 |ddv_scf|^2 =  2.624E-14

      iter #   7 total cpu time : 16330.6 secs   av.it.:  14.2
      thresh= 1.620E-08 alpha_mix =  0.700 |ddv_scf|^2 =  3.117E-15

     End of self-consistent calculation

     Convergence has been achieved 


     Representation #   6 mode #   8

     Self-consistent Calculation

      iter #   1 total cpu time : 16371.2 secs   av.it.:   9.4
      thresh= 1.000E-02 alpha_mix =  0.700 |ddv_scf|^2 =  4.769E-04

      iter #   2 total cpu time : 16424.6 secs   av.it.:  15.3
      thresh= 2.184E-03 alpha_mix =  0.700 |ddv_scf|^2 =  1.898E-02

      iter #   3 total cpu time : 16469.8 secs   av.it.:  12.7
      thresh= 1.000E-02 alpha_mix =  0.700 |ddv_scf|^2 =  7.708E-06

      iter #   4 total cpu time : 16519.1 secs   av.it.:  14.1
      thresh= 2.776E-04 alpha_mix =  0.700 |ddv_scf|^2 =  7.812E-07

      iter #   5 total cpu time : 16566.4 secs   av.it.:  13.3
      thresh= 8.839E-05 alpha_mix =  0.700 |ddv_scf|^2 =  1.192E-10

      iter #   6 total cpu time : 16617.0 secs   av.it.:  14.4
      thresh= 1.092E-06 alpha_mix =  0.700 |ddv_scf|^2 =  2.324E-12

      iter #   7 total cpu time : 16666.9 secs   av.it.:  14.2
      thresh= 1.524E-07 alpha_mix =  0.700 |ddv_scf|^2 =  8.691E-14

      iter #   8 total cpu time : 16714.8 secs   av.it.:  13.6
      thresh= 2.948E-08 alpha_mix =  0.700 |ddv_scf|^2 =  2.708E-15

     End of self-consistent calculation

     Convergence has been achieved 


     Representation #   7 mode #   9

     Self-consistent Calculation

      iter #   1 total cpu time : 16739.8 secs   av.it.:   4.4
      thresh= 1.000E-02 alpha_mix =  0.700 |ddv_scf|^2 =  1.862E-08

      iter #   2 total cpu time : 16791.1 secs   av.it.:  14.8
      thresh= 1.364E-05 alpha_mix =  0.700 |ddv_scf|^2 =  1.585E-09

      iter #   3 total cpu time : 16843.0 secs   av.it.:  14.9
      thresh= 3.982E-06 alpha_mix =  0.700 |ddv_scf|^2 =  2.626E-11

      iter #   4 total cpu time : 16894.4 secs   av.it.:  14.8
      thresh= 5.124E-07 alpha_mix =  0.700 |ddv_scf|^2 =  2.540E-13

      iter #   5 total cpu time : 16945.2 secs   av.it.:  14.6
      thresh= 5.040E-08 alpha_mix =  0.700 |ddv_scf|^2 =  1.073E-15

     End of self-consistent calculation

     Convergence has been achieved 


     Representation #   8 modes #  10  11

     Self-consistent Calculation

      iter #   1 total cpu time : 16990.7 secs   av.it.:   4.4
      thresh= 1.000E-02 alpha_mix =  0.700 |ddv_scf|^2 =  4.073E-09

      iter #   2 total cpu time : 17101.4 secs   av.it.:  16.0
      thresh= 6.382E-06 alpha_mix =  0.700 |ddv_scf|^2 =  4.209E-10

      iter #   3 total cpu time : 17212.8 secs   av.it.:  16.2
      thresh= 2.052E-06 alpha_mix =  0.700 |ddv_scf|^2 =  4.762E-12

      iter #   4 total cpu time : 17323.1 secs   av.it.:  16.0
      thresh= 2.182E-07 alpha_mix =  0.700 |ddv_scf|^2 =  1.231E-13

      iter #   5 total cpu time : 17427.8 secs   av.it.:  15.1
      thresh= 3.508E-08 alpha_mix =  0.700 |ddv_scf|^2 =  1.220E-15

     End of self-consistent calculation

     Convergence has been achieved 


     Representation #   9 modes #  12  13

     Self-consistent Calculation

      iter #   1 total cpu time : 17479.8 secs   av.it.:   4.8
      thresh= 1.000E-02 alpha_mix =  0.700 |ddv_scf|^2 =  7.295E-09

      iter #   2 total cpu time : 17592.0 secs   av.it.:  16.4
      thresh= 8.541E-06 alpha_mix =  0.700 |ddv_scf|^2 =  6.689E-10

      iter #   3 total cpu time : 17703.9 secs   av.it.:  16.3
      thresh= 2.586E-06 alpha_mix =  0.700 |ddv_scf|^2 =  5.940E-12

      iter #   4 total cpu time : 17815.7 secs   av.it.:  16.3
      thresh= 2.437E-07 alpha_mix =  0.700 |ddv_scf|^2 =  1.036E-13

      iter #   5 total cpu time : 17922.1 secs   av.it.:  15.4
      thresh= 3.219E-08 alpha_mix =  0.700 |ddv_scf|^2 =  7.334E-16

     End of self-consistent calculation

     Convergence has been achieved 


     Representation #  10 modes #  14  15

     Self-consistent Calculation

      iter #   1 total cpu time : 17993.7 secs   av.it.:   8.0
[...]
     lambda(   15)=  0.0055   gamma=  137.98 GHz

     Gaussian Broadening:   0.020 Ry, ngauss=   0
     DOS = 20.547337 states/spin/Ry/Unit Cell at Ef= 13.115833 eV
     double delta at Ef =644.433501
     lambda(    1)= -0.1616   gamma=  283.49 GHz
     lambda(    2)= -0.7214   gamma=   44.38 GHz
     lambda(    3)= -1.2267   gamma=   15.64 GHz
     lambda(    4)=  0.1322   gamma=   12.95 GHz
     lambda(    5)=  0.2108   gamma=   23.56 GHz
     lambda(    6)=  0.1284   gamma=   20.73 GHz
     lambda(    7)=  0.0657   gamma=   14.31 GHz
     lambda(    8)=  0.4582   gamma=  248.35 GHz
     lambda(    9)=  0.3096   gamma=  193.53 GHz
     lambda(   10)=  0.4437   gamma=  286.85 GHz
     lambda(   11)=  0.2116   gamma=  269.42 GHz
     lambda(   12)=  0.1132   gamma=  346.47 GHz
     lambda(   13)=  0.0095   gamma=  173.15 GHz
     lambda(   14)=  0.0129   gamma=  295.51 GHz
     lambda(   15)=  0.0047   gamma=  108.43 GHz

     Gaussian Broadening:   0.025 Ry, ngauss=   0
     DOS = 19.125462 states/spin/Ry/Unit Cell at Ef= 13.113508 eV
     double delta at Ef =557.636407
     lambda(    1)= -0.1521   gamma=  248.34 GHz
     lambda(    2)= -0.7087   gamma=   40.58 GHz
     lambda(    3)= -1.1101   gamma=   13.17 GHz
     lambda(    4)=  0.1310   gamma=   11.95 GHz
     lambda(    5)=  0.1959   gamma=   20.37 GHz
     lambda(    6)=  0.1206   gamma=   18.11 GHz
     lambda(    7)=  0.0655   gamma=   13.27 GHz
     lambda(    8)=  0.4126   gamma=  208.18 GHz
     lambda(    9)=  0.3082   gamma=  179.32 GHz
     lambda(   10)=  0.4158   gamma=  250.20 GHz
     lambda(   11)=  0.2028   gamma=  240.30 GHz
     lambda(   12)=  0.1055   gamma=  300.74 GHz
     lambda(   13)=  0.0092   gamma=  155.73 GHz
     lambda(   14)=  0.0124   gamma=  264.90 GHz
     lambda(   15)=  0.0042   gamma=   90.43 GHz

     Gaussian Broadening:   0.030 Ry, ngauss=   0
     DOS = 17.960614 states/spin/Ry/Unit Cell at Ef= 13.109622 eV
     double delta at Ef =495.420509
     lambda(    1)= -0.1454   gamma=  222.96 GHz
     lambda(    2)= -0.6940   gamma=   37.32 GHz
     lambda(    3)= -1.0229   gamma=   11.40 GHz
     lambda(    4)=  0.1307   gamma=   11.20 GHz
     lambda(    5)=  0.1848   gamma=   18.05 GHz
     lambda(    6)=  0.1140   gamma=   16.09 GHz
     lambda(    7)=  0.0654   gamma=   12.44 GHz
     lambda(    8)=  0.3854   gamma=  182.61 GHz
     lambda(    9)=  0.3064   gamma=  167.44 GHz
     lambda(   10)=  0.3968   gamma=  224.20 GHz
     lambda(   11)=  0.1996   gamma=  222.19 GHz
     lambda(   12)=  0.1002   gamma=  268.18 GHz
     lambda(   13)=  0.0090   gamma=  143.46 GHz
     lambda(   14)=  0.0121   gamma=  243.50 GHz
     lambda(   15)=  0.0039   gamma=   78.37 GHz

     Gaussian Broadening:   0.035 Ry, ngauss=   0
     DOS = 17.017716 states/spin/Ry/Unit Cell at Ef= 13.104112 eV
     double delta at Ef =448.857941
     lambda(    1)= -0.1413   gamma=  205.30 GHz
     lambda(    2)= -0.6805   gamma=   34.67 GHz
     lambda(    3)= -0.9521   gamma=   10.05 GHz
     lambda(    4)=  0.1319   gamma=   10.71 GHz
     lambda(    5)=  0.1756   gamma=   16.25 GHz
     lambda(    6)=  0.1078   gamma=   14.41 GHz
     lambda(    7)=  0.0652   gamma=   11.76 GHz
     lambda(    8)=  0.3720   gamma=  167.02 GHz
     lambda(    9)=  0.3069   gamma=  158.89 GHz
     lambda(   10)=  0.3858   gamma=  206.56 GHz
     lambda(   11)=  0.1994   gamma=  210.28 GHz
     lambda(   12)=  0.0963   gamma=  244.11 GHz
     lambda(   13)=  0.0090   gamma=  135.18 GHz
     lambda(   14)=  0.0120   gamma=  228.32 GHz
     lambda(   15)=  0.0037   gamma=   70.16 GHz

     Gaussian Broadening:   0.040 Ry, ngauss=   0
     DOS = 16.268087 states/spin/Ry/Unit Cell at Ef= 13.097346 eV
     double delta at Ef =412.582163
     lambda(    1)= -0.1388   gamma=  192.88 GHz
     lambda(    2)= -0.6675   gamma=   32.51 GHz
     lambda(    3)= -0.8915   gamma=    9.00 GHz
     lambda(    4)=  0.1342   gamma=   10.41 GHz
     lambda(    5)=  0.1674   gamma=   14.81 GHz
     lambda(    6)=  0.1018   gamma=   13.01 GHz
     lambda(    7)=  0.0647   gamma=   11.16 GHz
     lambda(    8)=  0.3684   gamma=  158.09 GHz
     lambda(    9)=  0.3093   gamma=  153.08 GHz
     lambda(   10)=  0.3808   gamma=  194.92 GHz
     lambda(   11)=  0.2006   gamma=  202.21 GHz
     lambda(   12)=  0.0932   gamma=  225.78 GHz
     lambda(   13)=  0.0090   gamma=  129.65 GHz
     lambda(   14)=  0.0120   gamma=  217.35 GHz
     lambda(   15)=  0.0035   gamma=   64.58 GHz

     Gaussian Broadening:   0.045 Ry, ngauss=   0
     DOS = 15.671748 states/spin/Ry/Unit Cell at Ef= 13.089784 eV
     double delta at Ef =383.064668
     lambda(    1)= -0.1373   gamma=  183.73 GHz
     lambda(    2)= -0.6541   gamma=   30.69 GHz
     lambda(    3)= -0.8382   gamma=    8.15 GHz
     lambda(    4)=  0.1368   gamma=   10.22 GHz
     lambda(    5)=  0.1601   gamma=   13.64 GHz
     lambda(    6)=  0.0960   gamma=   11.82 GHz
     lambda(    7)=  0.0639   gamma=   10.60 GHz
     lambda(    8)=  0.3704   gamma=  153.15 GHz
     lambda(    9)=  0.3128   gamma=  149.15 GHz
     lambda(   10)=  0.3793   gamma=  187.00 GHz
     lambda(   11)=  0.2023   gamma=  196.46 GHz
     lambda(   12)=  0.0905   gamma=  211.36 GHz
     lambda(   13)=  0.0091   gamma=  125.80 GHz
     lambda(   14)=  0.0119   gamma=  209.10 GHz
     lambda(   15)=  0.0034   gamma=   60.71 GHz

     Gaussian Broadening:   0.050 Ry, ngauss=   0
     DOS = 15.179605 states/spin/Ry/Unit Cell at Ef= 13.081784 eV
     double delta at Ef =358.115637
     lambda(    1)= -0.1362   gamma=  176.57 GHz
     lambda(    2)= -0.6409   gamma=   29.13 GHz
     lambda(    3)= -0.7913   gamma=    7.45 GHz
     lambda(    4)=  0.1391   gamma=   10.07 GHz
     lambda(    5)=  0.1537   gamma=   12.69 GHz
     lambda(    6)=  0.0908   gamma=   10.83 GHz
     lambda(    7)=  0.0627   gamma=   10.08 GHz
     lambda(    8)=  0.3755   gamma=  150.36 GHz
     lambda(    9)=  0.3171   gamma=  146.47 GHz
     lambda(   10)=  0.3793   gamma=  181.16 GHz
     lambda(   11)=  0.2041   gamma=  191.99 GHz
     lambda(   12)=  0.0883   gamma=  199.70 GHz
     lambda(   13)=  0.0092   gamma=  122.89 GHz
     lambda(   14)=  0.0119   gamma=  202.59 GHz
     lambda(   15)=  0.0034   gamma=   57.91 GHz

     Calculation of q =    0.0000000   0.2500000  -0.5000000

     Parallelization info
     --------------------
     sticks:   dense  smooth     PW     G-vecs:    dense   smooth      PW
     Min         517     260     83                19677     6977    1247
     Max         517     262     85                19677     6978    1247
     Sum        2585    1305    421                98385    34889    6235


     Title: 
     YAuH3 phonon + electron-phonon 4x4x4 q (RTSC A15 · SrAuH3 Y-variant · per


     bravais-lattice index     =            0
     lattice parameter (alat)  =       7.1130  a.u.
     unit-cell volume          =     359.8756 (a.u.)^3
     number of atoms/cell      =            5
     number of atomic types    =            3
     number of electrons       =        25.00
     number of Kohn-Sham states=           17
     kinetic-energy cutoff     =      80.0000  Ry
     charge density cutoff     =     640.0000  Ry
     Exchange-correlation= PBE
                           (   1   4   3   4   0   0   0)

     celldm(1)=   7.112967  celldm(2)=   0.000000  celldm(3)=   0.000000
     celldm(4)=   0.000000  celldm(5)=   0.000000  celldm(6)=   0.000000

     crystal axes: (cart. coord. in units of alat)
               a(1) = (   1.000000  -0.000000   0.000000 )  
               a(2) = (  -0.000000   1.000000   0.000000 )  
               a(3) = (   0.000000   0.000000   1.000000 )  

     reciprocal axes: (cart. coord. in units 2 pi/alat)
               b(1) = (  1.000000  0.000000 -0.000000 )  
               b(2) = (  0.000000  1.000000 -0.000000 )  
               b(3) = ( -0.000000 -0.000000  1.000000 )  


     PseudoPot. # 1 for Y  read from file:
     ./pseudo/Y.pbe-spn-rrkjus_psl.1.0.0.UPF
     MD5 check sum: d801e27cd54ae79b7791715f927f78c5
     Pseudo is Ultrasoft + core correction, Zval = 11.0
     Generated using &quot;atomic&quot; code by A. Dal Corso  v.6.2.2
     Using radial grid of 1223 points,  6 beta functions with: 
                l(1) =   0
                l(2) =   0
                l(3) =   1
                l(4) =   1
                l(5) =   2
                l(6) =   2
     Q(r) pseudized with 0 coefficients 


     PseudoPot. # 2 for Au read from file:
     ./pseudo/Au.pbe-n-rrkjus_psl.1.0.0.UPF
     MD5 check sum: 36a5134bc4f0d73a839546df15754897
     Pseudo is Ultrasoft + core correction, Zval = 11.0
     Generated using &quot;atomic&quot; code by A. Dal Corso  v.6.3
     Using radial grid of 1279 points,  6 beta functions with: 
                l(1) =   0
                l(2) =   0
                l(3) =   1
                l(4) =   1
                l(5) =   2
                l(6) =   2
     Q(r) pseudized with 0 coefficients 


     PseudoPot. # 3 for H  read from file:
     ./pseudo/H.pbe-rrkjus_psl.1.0.0.UPF
     MD5 check sum: 9e615844a0e642e0aee8526d0d0f65f7
     Pseudo is Ultrasoft, Zval =  1.0
     Generated using &quot;atomic&quot; code by A. Dal Corso  v.6.3MaX
     Using radial grid of  929 points,  2 beta functions with: 
                l(1) =   0
                l(2) =   0
     Q(r) pseudized with 0 coefficients 


     atomic species   valence    mass     pseudopotential
        Y             11.00    88.90600     Y ( 1.00)
        Au            11.00   196.96700     Au( 1.00)
        H              1.00     1.00800     H ( 1.00)

     48 Sym. Ops., with inversion, found



   Cartesian axes

     site n.     atom                  positions (alat units)
         1           Y   tau(   1) = (   0.5000000   0.5000000   0.5000000  )
         2           Au  tau(   2) = (   0.0000000   0.0000000  -0.0000000  )
         3           H   tau(   3) = (   0.5000000  -0.0000000   0.0000000  )
         4           H   tau(   4) = (  -0.0000000   0.5000000   0.0000000  )
         5           H   tau(   5) = (  -0.0000000   0.0000000   0.5000000  )

     number of k points=  2592  Methfessel-Paxton smearing, width (Ry)=  0.0200

     Number of k-points >= 100: set verbosity='high' to print them.

     Dense  grid:    98385 G-vectors     FFT dimensions: (  60,  60,  60)

     Smooth grid:    34889 G-vectors     FFT dimensions: (  45,  45,  45)

     Estimated max dynamical RAM per process >      70.89 MB

     Estimated total dynamical RAM >     354.44 MB

     The potential is recalculated from file :
     ./out/_ph0/yauh3.q_5/yauh3.save/charge-density

     Starting wfcs are   25 atomic wfcs

     Band Structure Calculation
     Davidson diagonalization with overlap

     ethr =  4.00E-11,  avg # of iterations = 31.5

     total cpu time spent up to now is     1781.7 secs

     End of band structure calculation

     Number of k-points >= 100: set verbosity='high' to print the bands.

     the Fermi energy is    13.1158 ev

     Writing output data file ./out/_ph0/yauh3.q_5/yauh3.save/
WARNING(FoX)
emitting non-ASCII character. Platform-dependent result!
WARNING(FoX)
emitting non-ASCII character. Platform-dependent result!
WARNING(FoX)
emitting non-ASCII character. Platform-dependent result!
WARNING(FoX)
emitting non-ASCII character. Platform-dependent result!

     YAuH3 phonon + electron-phonon 4x4x4 q (RTSC A15 · SrAuH3 Y-variant · per

     bravais-lattice index     =            0
     lattice parameter (alat)  =       7.1130  a.u.
     unit-cell volume          =     359.8756 (a.u.)^3
     number of atoms/cell      =            5
     number of atomic types    =            3
     kinetic-energy cut-off    =      80.0000  Ry
     charge density cut-off    =     640.0000  Ry
     convergence threshold     =      1.0E-14
     beta                      =       0.7000
     number of iterations used =            4
     Exchange-correlation= PBE
                           (   1   4   3   4   0   0   0)


     celldm(1)=    7.11297  celldm(2)=    0.00000  celldm(3)=    0.00000
     celldm(4)=    0.00000  celldm(5)=    0.00000  celldm(6)=    0.00000

     crystal axes: (cart. coord. in units of alat)
               a(1) = (  1.0000 -0.0000  0.0000 )  
               a(2) = ( -0.0000  1.0000  0.0000 )  
               a(3) = (  0.0000  0.0000  1.0000 )  

     reciprocal axes: (cart. coord. in units 2 pi/alat)
               b(1) = (  1.0000  0.0000 -0.0000 )  
               b(2) = (  0.0000  1.0000 -0.0000 )  
               b(3) = ( -0.0000 -0.0000  1.0000 )  


     Atoms inside the unit cell: 

     Cartesian axes

     site n.  atom      mass           positions (alat units)
        1     Y   88.9060   tau(    1) = (    0.50000    0.50000    0.50000  )
        2     Au 196.9670   tau(    2) = (    0.00000    0.00000   -0.00000  )
        3     H    1.0080   tau(    3) = (    0.50000   -0.00000    0.00000  )
        4     H    1.0080   tau(    4) = (   -0.00000    0.50000    0.00000  )
        5     H    1.0080   tau(    5) = (   -0.00000    0.00000    0.50000  )

     Computing dynamical matrix for 
                    q = (   0.0000000   0.2500000  -0.5000000 )

      4 Sym.Ops. (no q -> -q+G )


     G cutoff =  820.2039  (  19677 G-vectors)     FFT grid: ( 60, 60, 60)
     G cutoff =  410.1019  (   6978 G-vectors)  smooth grid: ( 45, 45, 45)

     number of k points=  2592  Methfessel-Paxton smearing, width (Ry)=  0.0200

     PseudoPot. # 1 for Y  read from file:
     ./pseudo/Y.pbe-spn-rrkjus_psl.1.0.0.UPF
     MD5 check sum: d801e27cd54ae79b7791715f927f78c5
     Pseudo is Ultrasoft + core correction, Zval = 11.0
     Generated using &quot;atomic&quot; code by A. Dal Corso  v.6.2.2
     Using radial grid of 1223 points,  6 beta functions with: 
                l(1) =   0
                l(2) =   0
                l(3) =   1
                l(4) =   1
                l(5) =   2
                l(6) =   2
     Q(r) pseudized with 0 coefficients 


     PseudoPot. # 2 for Au read from file:
     ./pseudo/Au.pbe-n-rrkjus_psl.1.0.0.UPF
     MD5 check sum: 36a5134bc4f0d73a839546df15754897
     Pseudo is Ultrasoft + core correction, Zval = 11.0
     Generated using &quot;atomic&quot; code by A. Dal Corso  v.6.3
     Using radial grid of 1279 points,  6 beta functions with: 
                l(1) =   0
                l(2) =   0
                l(3) =   1
                l(4) =   1
                l(5) =   2
                l(6) =   2
     Q(r) pseudized with 0 coefficients 


     PseudoPot. # 3 for H  read from file:
     ./pseudo/H.pbe-rrkjus_psl.1.0.0.UPF
     MD5 check sum: 9e615844a0e642e0aee8526d0d0f65f7
     Pseudo is Ultrasoft, Zval =  1.0
     Generated using &quot;atomic&quot; code by A. Dal Corso  v.6.3MaX
     Using radial grid of  929 points,  2 beta functions with: 
                l(1) =   0
                l(2) =   0
     Q(r) pseudized with 0 coefficients 


     Mode symmetry, C_2v (mm2)  point group:


     Atomic displacements:
     There are   15 irreducible representations

     Representation     1      1 modes -  To be done

     Representation     2      1 modes -  To be done

     Representation     3      1 modes -  To be done

     Representation     4      1 modes -  To be done

     Representation     5      1 modes -  To be done

     Representation     6      1 modes -  To be done

     Representation     7      1 modes -  To be done

     Representation     8      1 modes -  To be done

     Representation     9      1 modes -  To be done

     Representation    10      1 modes -  To be done

     Representation    11      1 modes -  To be done

     Representation    12      1 modes -  To be done

     Representation    13      1 modes -  To be done

     Representation    14      1 modes -  To be done

     Representation    15      1 modes -  To be done



     Alpha used in Ewald sum =   2.8000
     PHONON       :      9h45m CPU     10h49m WALL



     Representation #   1 mode #   1

     Self-consistent Calculation

      iter #   1 total cpu time : 39085.9 secs   av.it.:   9.8
      thresh= 1.000E-02 alpha_mix =  0.700 |ddv_scf|^2 =  7.171E-05

      iter #   2 total cpu time : 39263.1 secs   av.it.:  16.0
      thresh= 8.468E-04 alpha_mix =  0.700 |ddv_scf|^2 =  4.773E-04

      iter #   3 total cpu time : 39419.7 secs   av.it.:  13.9
      thresh= 2.185E-03 alpha_mix =  0.700 |ddv_scf|^2 =  2.602E-06

      iter #   4 total cpu time : 39587.8 secs   av.it.:  15.2
      thresh= 1.613E-04 alpha_mix =  0.700 |ddv_scf|^2 =  5.277E-08

      iter #   5 total cpu time : 39757.1 secs   av.it.:  15.3
      thresh= 2.297E-05 alpha_mix =  0.700 |ddv_scf|^2 =  2.031E-10

      iter #   6 total cpu time : 39934.3 secs   av.it.:  16.2
      thresh= 1.425E-06 alpha_mix =  0.700 |ddv_scf|^2 =  2.230E-11

      iter #   7 total cpu time : 40112.0 secs   av.it.:  16.3
      thresh= 4.722E-07 alpha_mix =  0.700 |ddv_scf|^2 =  9.866E-12

      iter #   8 total cpu time : 40279.3 secs   av.it.:  15.2
      thresh= 3.141E-07 alpha_mix =  0.700 |ddv_scf|^2 =  8.936E-14

      iter #   9 total cpu time : 40455.4 secs   av.it.:  16.1
      thresh= 2.989E-08 alpha_mix =  0.700 |ddv_scf|^2 =  1.480E-14

      iter #  10 total cpu time : 40628.2 secs   av.it.:  15.7
      thresh= 1.216E-08 alpha_mix =  0.700 |ddv_scf|^2 =  2.506E-15

     End of self-consistent calculation

     Convergence has been achieved 


     Representation #   2 mode #   2

     Self-consistent Calculation

      iter #   1 total cpu time : 40717.7 secs   av.it.:   5.4
      thresh= 1.000E-02 alpha_mix =  0.700 |ddv_scf|^2 =  6.112E-07

      iter #   2 total cpu time : 40894.9 secs   av.it.:  16.1
      thresh= 7.818E-05 alpha_mix =  0.700 |ddv_scf|^2 =  4.748E-06

      iter #   3 total cpu time : 41050.7 secs   av.it.:  13.9
      thresh= 2.179E-04 alpha_mix =  0.700 |ddv_scf|^2 =  3.803E-09

      iter #   4 total cpu time : 41215.3 secs   av.it.:  14.8
      thresh= 6.167E-06 alpha_mix =  0.700 |ddv_scf|^2 =  5.091E-11

      iter #   5 total cpu time : 41386.7 secs   av.it.:  15.5
      thresh= 7.135E-07 alpha_mix =  0.700 |ddv_scf|^2 =  6.049E-12

      iter #   6 total cpu time : 41558.0 secs   av.it.:  15.5
      thresh= 2.459E-07 alpha_mix =  0.700 |ddv_scf|^2 =  2.372E-12

      iter #   7 total cpu time : 41723.2 secs   av.it.:  14.9
      thresh= 1.540E-07 alpha_mix =  0.700 |ddv_scf|^2 =  8.728E-15

     End of self-consistent calculation

     Convergence has been achieved 


     Representation #   3 mode #   3

     Self-consistent Calculation

      iter #   1 total cpu time : 41807.6 secs   av.it.:   4.9
      thresh= 1.000E-02 alpha_mix =  0.700 |ddv_scf|^2 =  2.030E-07

      iter #   2 total cpu time : 41984.1 secs   av.it.:  16.0
      thresh= 4.505E-05 alpha_mix =  0.700 |ddv_scf|^2 =  1.112E-06

      iter #   3 total cpu time : 42140.7 secs   av.it.:  13.9
      thresh= 1.055E-04 alpha_mix =  0.700 |ddv_scf|^2 =  1.854E-08

      iter #   4 total cpu time : 42309.6 secs   av.it.:  15.1
      thresh= 1.362E-05 alpha_mix =  0.700 |ddv_scf|^2 =  9.088E-10

      iter #   5 total cpu time : 42477.8 secs   av.it.:  15.1
      thresh= 3.015E-06 alpha_mix =  0.700 |ddv_scf|^2 =  5.836E-11

      iter #   6 total cpu time : 42642.6 secs   av.it.:  14.8
      thresh= 7.639E-07 alpha_mix =  0.700 |ddv_scf|^2 =  6.189E-13

      iter #   7 total cpu time : 42817.4 secs   av.it.:  15.8
      thresh= 7.867E-08 alpha_mix =  0.700 |ddv_scf|^2 =  6.979E-14

      iter #   8 total cpu time : 42987.2 secs   av.it.:  15.3
      thresh= 2.642E-08 alpha_mix =  0.700 |ddv_scf|^2 =  1.763E-14

      iter #   9 total cpu time : 43157.9 secs   av.it.:  15.4
      thresh= 1.328E-08 alpha_mix =  0.700 |ddv_scf|^2 =  3.372E-16

     End of self-consistent calculation

     Convergence has been achieved 


     Representation #   4 mode #   4

     Self-consistent Calculation
mpirun: Forwarding signal 18 to job
