
     Program PHONON v.6.7MaX starts on  3Jun2026 at 12:44:46 

     This program is part of the open-source Quantum ESPRESSO suite
     for quantum simulation of materials; please cite
         "P. Giannozzi et al., J. Phys.:Condens. Matter 21 395502 (2009);
         "P. Giannozzi et al., J. Phys.:Condens. Matter 29 465901 (2017);
          URL http://www.quantum-espresso.org", 
     in publications or presentations arising from this work. More details at
     http://www.quantum-espresso.org/quote

     Parallel version (MPI), running on     6 processors

     MPI processes distributed on     1 nodes
     R & G space division:  proc/nbgrp/npool/nimage =       6
     Reading input from ph.in
     Message from routine ph_restart_set_filename :
     cannot open file for reading or writing
     Message from routine ph_restart_set_filename :
     cannot open file for reading or writing
     Run is not recoverable starting from scratch

     Reading xml data from directory:

     ./out/li2mgh16.save/
     file Mg.pbe-spnl-rrkjus_psl.1.0.0.UPF: wavefunction(s)  2P renormalized

     IMPORTANT: XC functional enforced from input :
     Exchange-correlation= PBE
                           (   1   4   3   4   0   0   0)
     Any further DFT definition will be discarded
     Please, verify this is what you really want


     Parallelization info
     --------------------
     sticks:   dense  smooth     PW     G-vecs:    dense   smooth      PW
     Min         445     223     66                15129     5357     867
     Max         447     225     67                15130     5358     869
     Sum        2677    1345    397                90777    32143    5209


     Check: negative core charge=   -0.000009
     Reading collected, re-writing distributed wavefunctions


     Dynamical matrices for ( 2, 2, 2)  uniform grid of q-points
     (   8 q-points):
       N         xq(1)         xq(2)         xq(3) 
       1   0.000000000   0.000000000   0.000000000
       2  -0.353553391  -0.353553391   0.353553391
       3  -0.353553391   0.353553391  -0.353553391
       4  -0.707106781   0.000000000   0.000000000
       5   0.353553391  -0.353553391  -0.353553391
       6   0.000000000  -0.707106781   0.000000000
       7   0.000000000   0.000000000  -0.707106781
       8  -0.353553391  -0.353553391  -0.353553391

     Saving dvscf to file. Distribute only q points, not irreducible represetations.

     Calculation of q =    0.0000000   0.0000000   0.0000000

     Li2MgH16 el-ph 2x2x2 q (RTSC clathrate electron_phonon=simple)             

     bravais-lattice index     =            0
     lattice parameter (alat)  =       8.9775  a.u.
     unit-cell volume          =     511.6301 (a.u.)^3
     number of atoms/cell      =           38
     number of atomic types    =            3
     kinetic-energy cut-off    =      60.0000  Ry
     charge density cut-off    =     480.0000  Ry
     convergence threshold     =      1.0E-14
     beta                      =       0.7000
     number of iterations used =            4
     Exchange-correlation= PBE
                           (   1   4   3   4   0   0   0)


     celldm(1)=    8.97753  celldm(2)=    0.00000  celldm(3)=    0.00000
     celldm(4)=    0.00000  celldm(5)=    0.00000  celldm(6)=    0.00000

     crystal axes: (cart. coord. in units of alat)
               a(1) = (  0.0000  0.7071  0.7071 )  
               a(2) = (  0.7071  0.0000  0.7071 )  
               a(3) = (  0.7071  0.7071  0.0000 )  

     reciprocal axes: (cart. coord. in units 2 pi/alat)
               b(1) = ( -0.7071  0.7071  0.7071 )  
               b(2) = (  0.7071 -0.7071  0.7071 )  
               b(3) = (  0.7071  0.7071 -0.7071 )  


     Atoms inside the unit cell: 

     Cartesian axes

     site n.  atom      mass           positions (alat units)
        1     Li   6.9410   tau(    1) = (    0.53033    0.88388    0.53033  )
        2     Li   6.9410   tau(    2) = (    0.53033    0.53033    0.88388  )
        3     Li   6.9410   tau(    3) = (    0.88388    0.53033    0.53033  )
        4     Li   6.9410   tau(    4) = (    0.88388    0.88388    0.88388  )
        5     Mg  24.3050   tau(    5) = (   -0.00000   -0.00000    0.00000  )
        6     Mg  24.3050   tau(    6) = (    0.35355    0.35355    0.35355  )
        7     H    1.0080   tau(    7) = (    0.94400    0.94400    1.17732  )
        8     H    1.0080   tau(    8) = (    1.17732    0.94400    0.94400  )
        9     H    1.0080   tau(    9) = (    0.94400    1.17732    0.94400  )
       10     H    1.0080   tau(   10) = (    0.82377    0.82377    0.59044  )
       11     H    1.0080   tau(   11) = (    0.82377    0.59044    0.82377  )
       12     H    1.0080   tau(   12) = (    0.59044    0.82377    0.82377  )
       13     H    1.0080   tau(   13) = (    1.17732    1.17732    1.17732  )
       14     H    1.0080   tau(   14) = (    0.59044    0.59044    0.59044  )
       15     H    1.0080   tau(   15) = (    0.61609    1.05463    0.79812  )
       16     H    1.0080   tau(   16) = (    0.79812    0.61609    1.05463  )
       17     H    1.0080   tau(   17) = (    1.05463    0.79812    0.61609  )
       18     H    1.0080   tau(   18) = (    0.71314    1.15168    0.96965  )
       19     H    1.0080   tau(   19) = (    1.15168    0.96965    0.71314  )
       20     H    1.0080   tau(   20) = (    0.96965    0.71314    1.15168  )
       21     H    1.0080   tau(   21) = (    1.15168    0.71314    0.96965  )
       22     H    1.0080   tau(   22) = (    0.96965    1.15168    0.71314  )
       23     H    1.0080   tau(   23) = (    0.71314    0.96965    1.15168  )
       24     H    1.0080   tau(   24) = (    1.05463    0.61609    0.79812  )
       25     H    1.0080   tau(   25) = (    0.61609    0.79812    1.05463  )
       26     H    1.0080   tau(   26) = (    0.79812    1.05463    0.61609  )
       27     H    1.0080   tau(   27) = (    0.79812    0.35959    0.79812  )
       28     H    1.0080   tau(   28) = (    0.35959    0.61609    0.61609  )
       29     H    1.0080   tau(   29) = (    1.40818    1.15168    1.15168  )
       30     H    1.0080   tau(   30) = (    0.96965    0.96965    1.40818  )
       31     H    1.0080   tau(   31) = (    0.96965    1.40818    0.96965  )
       32     H    1.0080   tau(   32) = (    0.79812    0.79812    0.35959  )
       33     H    1.0080   tau(   33) = (    0.61609    0.35959    0.61609  )
       34     H    1.0080   tau(   34) = (    1.40818    0.96965    0.96965  )
       35     H    1.0080   tau(   35) = (    1.15168    1.40818    1.15168  )
       36     H    1.0080   tau(   36) = (    0.35959    0.79812    0.79812  )
       37     H    1.0080   tau(   37) = (    0.61609    0.61609    0.35959  )
       38     H    1.0080   tau(   38) = (    1.15168    1.15168    1.40818  )

     Computing dynamical matrix for 
                    q = (   0.0000000   0.0000000   0.0000000 )

      2 Sym.Ops. (with q -> -q+G )


     G cutoff =  979.9311  (  15130 G-vectors)     FFT grid: ( 64, 64, 64)
     G cutoff =  489.9656  (   5358 G-vectors)  smooth grid: ( 45, 45, 45)

     number of k points=   260  Methfessel-Paxton smearing, width (Ry)=  0.0200

     PseudoPot. # 1 for Li read from file:
     ./pseudo/Li.pbe-s-rrkjus_psl.1.0.0.UPF
     MD5 check sum: a07f98b50cb2323aa4dab8f6b8331f41
     Pseudo is Ultrasoft, Zval =  3.0
     Generated using &quot;atomic&quot; code by A. Dal Corso  v.6.3MaX
     Using radial grid of 1017 points,  4 beta functions with: 
                l(1) =   0
                l(2) =   0
                l(3) =   1
                l(4) =   1
     Q(r) pseudized with 0 coefficients 


     PseudoPot. # 2 for Mg read from file:
     ./pseudo/Mg.pbe-spnl-rrkjus_psl.1.0.0.UPF
     MD5 check sum: 7bbac6cb09d08803af897bb2209b4f8d
     Pseudo is Ultrasoft + core correction, Zval = 10.0
     Generated using &quot;atomic&quot; code by A. Dal Corso  v.6.3
     Using radial grid of 1129 points,  4 beta functions with: 
                l(1) =   0
                l(2) =   0
                l(3) =   1
                l(4) =   1
     Q(r) pseudized with 0 coefficients 


     PseudoPot. # 3 for H  read from file:
     ./pseudo/H.pbe-rrkjus_psl.1.0.0.UPF
     MD5 check sum: af0d83a6ef17603a7b7645159cc407bf
     Pseudo is Ultrasoft, Zval =  1.0
     Generated using &quot;atomic&quot; code by A. Dal Corso  v.6.3MaX
     Using radial grid of  929 points,  2 beta functions with: 
                l(1) =   0
                l(2) =   0
     Q(r) pseudized with 0 coefficients 


     Mode symmetry, C_1 (1)     point group:


     Atomic displacements:
     There are  114 irreducible representations

     Representation     1      1 modes -  To be done

     Representation     2      1 modes -  To be done

     Representation     3      1 modes -  To be done

     Representation     4      1 modes -  To be done

     Representation     5      1 modes -  To be done

     Representation     6      1 modes -  To be done

     Representation     7      1 modes -  To be done

     Representation     8      1 modes -  To be done

     Representation     9      1 modes -  To be done

     Representation    10      1 modes -  To be done

     Representation    11      1 modes -  To be done

     Representation    12      1 modes -  To be done

     Representation    13      1 modes -  To be done

     Representation    14      1 modes -  To be done

     Representation    15      1 modes -  To be done

     Representation    16      1 modes -  To be done

     Representation    17      1 modes -  To be done

     Representation    18      1 modes -  To be done

     Representation    19      1 modes -  To be done

     Representation    20      1 modes -  To be done

     Representation    21      1 modes -  To be done

     Representation    22      1 modes -  To be done

     Representation    23      1 modes -  To be done

     Representation    24      1 modes -  To be done

     Representation    25      1 modes -  To be done

     Representation    26      1 modes -  To be done

     Representation    27      1 modes -  To be done

     Representation    28      1 modes -  To be done

     Representation    29      1 modes -  To be done

     Representation    30      1 modes -  To be done

     Representation    31      1 modes -  To be done

     Representation    32      1 modes -  To be done

     Representation    33      1 modes -  To be done

     Representation    34      1 modes -  To be done

     Representation    35      1 modes -  To be done

     Representation    36      1 modes -  To be done

     Representation    37      1 modes -  To be done

     Representation    38      1 modes -  To be done

     Representation    39      1 modes -  To be done

     Representation    40      1 modes -  To be done

     Representation    41      1 modes -  To be done

     Representation    42      1 modes -  To be done

     Representation    43      1 modes -  To be done

     Representation    44      1 modes -  To be done

     Representation    45      1 modes -  To be done

     Representation    46      1 modes -  To be done

     Representation    47      1 modes -  To be done

     Representation    48      1 modes -  To be done

     Representation    49      1 modes -  To be done

     Representation    50      1 modes -  To be done

     Representation    51      1 modes -  To be done

     Representation    52      1 modes -  To be done

     Representation    53      1 modes -  To be done

     Representation    54      1 modes -  To be done

     Representation    55      1 modes -  To be done

     Representation    56      1 modes -  To be done

     Representation    57      1 modes -  To be done

     Representation    58      1 modes -  To be done

     Representation    59      1 modes -  To be done

     Representation    60      1 modes -  To be done

     Representation    61      1 modes -  To be done

     Representation    62      1 modes -  To be done

     Representation    63      1 modes -  To be done

     Representation    64      1 modes -  To be done

     Representation    65      1 modes -  To be done

     Representation    66      1 modes -  To be done

     Representation    67      1 modes -  To be done

     Representation    68      1 modes -  To be done

     Representation    69      1 modes -  To be done

     Representation    70      1 modes -  To be done

     Representation    71      1 modes -  To be done

     Representation    72      1 modes -  To be done

     Representation    73      1 modes -  To be done

     Representation    74      1 modes -  To be done

     Representation    75      1 modes -  To be done

     Representation    76      1 modes -  To be done

     Representation    77      1 modes -  To be done

     Representation    78      1 modes -  To be done

     Representation    79      1 modes -  To be done

     Representation    80      1 modes -  To be done

     Representation    81      1 modes -  To be done

     Representation    82      1 modes -  To be done

     Representation    83      1 modes -  To be done

     Representation    84      1 modes -  To be done

     Representation    85      1 modes -  To be done

     Representation    86      1 modes -  To be done

     Representation    87      1 modes -  To be done

     Representation    88      1 modes -  To be done

     Representation    89      1 modes -  To be done

     Representation    90      1 modes -  To be done

     Representation    91      1 modes -  To be done

     Representation    92      1 modes -  To be done

     Representation    93      1 modes -  To be done

     Representation    94      1 modes -  To be done

     Representation    95      1 modes -  To be done

     Representation    96      1 modes -  To be done

     Representation    97      1 modes -  To be done

     Representation    98      1 modes -  To be done

     Representation    99      1 modes -  To be done

     Representation   100      1 modes -  To be done

     Representation   101      1 modes -  To be done

     Representation   102      1 modes -  To be done

     Representation   103      1 modes -  To be done

     Representation   104      1 modes -  To be done

     Representation   105      1 modes -  To be done

     Representation   106      1 modes -  To be done

     Representation   107      1 modes -  To be done

     Representation   108      1 modes -  To be done

     Representation   109      1 modes -  To be done

     Representation   110      1 modes -  To be done

     Representation   111      1 modes -  To be done

     Representation   112      1 modes -  To be done

     Representation   113      1 modes -  To be done

     Representation   114      1 modes -  To be done



     Alpha used in Ewald sum =   2.8000
     PHONON       :   6m21.52s CPU   6m52.06s WALL



     Representation #   1 mode #   1

     Self-consistent Calculation

     Pert. #  1: Fermi energy shift (Ry) =    -8.4924E-07     0.0000E+00

      iter #   1 total cpu time :   472.6 secs   av.it.:   5.6
      thresh= 1.000E-02 alpha_mix =  0.700 |ddv_scf|^2 =  4.680E-07

     Pert. #  1: Fermi energy shift (Ry) =    -8.3799E-08     0.0000E+00

      iter #   2 total cpu time :   609.4 secs   av.it.:  17.0
      thresh= 6.841E-05 alpha_mix =  0.700 |ddv_scf|^2 =  3.020E-07

     Pert. #  1: Fermi energy shift (Ry) =     9.2218E-09     0.0000E+00

      iter #   3 total cpu time :   746.2 secs   av.it.:  16.3
      thresh= 5.495E-05 alpha_mix =  0.700 |ddv_scf|^2 =  2.803E-09

     Pert. #  1: Fermi energy shift (Ry) =     2.5957E-08     0.0000E+00

      iter #   4 total cpu time :   900.5 secs   av.it.:  17.1
      thresh= 5.294E-06 alpha_mix =  0.700 |ddv_scf|^2 =  2.960E-10

     Pert. #  1: Fermi energy shift (Ry) =     7.2520E-09     0.0000E+00

      iter #   5 total cpu time :  1038.7 secs   av.it.:  16.6
      thresh= 1.720E-06 alpha_mix =  0.700 |ddv_scf|^2 =  9.324E-12

     Pert. #  1: Fermi energy shift (Ry) =     1.1846E-09     0.0000E+00

      iter #   6 total cpu time :  1188.3 secs   av.it.:  16.5
      thresh= 3.054E-07 alpha_mix =  0.700 |ddv_scf|^2 =  7.617E-13

     Pert. #  1: Fermi energy shift (Ry) =     2.5712E-10     0.0000E+00

      iter #   7 total cpu time :  1328.6 secs   av.it.:  16.8
      thresh= 8.728E-08 alpha_mix =  0.700 |ddv_scf|^2 =  9.438E-14

     Pert. #  1: Fermi energy shift (Ry) =    -1.9000E-10     0.0000E+00

      iter #   8 total cpu time :  1473.8 secs   av.it.:  16.9
      thresh= 3.072E-08 alpha_mix =  0.700 |ddv_scf|^2 =  1.172E-14

     Pert. #  1: Fermi energy shift (Ry) =    -1.4586E-10     0.0000E+00

      iter #   9 total cpu time :  1606.2 secs   av.it.:  16.5
      thresh= 1.083E-08 alpha_mix =  0.700 |ddv_scf|^2 =  3.529E-15

     End of self-consistent calculation

     Convergence has been achieved 


     Representation #   2 mode #   2

     Self-consistent Calculation

     Pert. #  1: Fermi energy shift (Ry) =     3.8395E-07     0.0000E+00

      iter #   1 total cpu time :  1676.1 secs   av.it.:   5.6
      thresh= 1.000E-02 alpha_mix =  0.700 |ddv_scf|^2 =  4.680E-07

     Pert. #  1: Fermi energy shift (Ry) =     3.2376E-07     0.0000E+00

      iter #   2 total cpu time :  1824.2 secs   av.it.:  17.0
      thresh= 6.841E-05 alpha_mix =  0.700 |ddv_scf|^2 =  3.020E-07

     Pert. #  1: Fermi energy shift (Ry) =     1.6812E-07     0.0000E+00

      iter #   3 total cpu time :  1955.4 secs   av.it.:  16.3
      thresh= 5.495E-05 alpha_mix =  0.700 |ddv_scf|^2 =  2.803E-09

     Pert. #  1: Fermi energy shift (Ry) =     2.3576E-08     0.0000E+00

      iter #   4 total cpu time :  2095.4 secs   av.it.:  17.1
      thresh= 5.294E-06 alpha_mix =  0.700 |ddv_scf|^2 =  2.959E-10

     Pert. #  1: Fermi energy shift (Ry) =     3.2768E-09     0.0000E+00

      iter #   5 total cpu time :  2241.7 secs   av.it.:  16.6
      thresh= 1.720E-06 alpha_mix =  0.700 |ddv_scf|^2 =  9.325E-12

     Pert. #  1: Fermi energy shift (Ry) =     1.3396E-09     0.0000E+00

      iter #   6 total cpu time :  2381.2 secs   av.it.:  16.5
      thresh= 3.054E-07 alpha_mix =  0.700 |ddv_scf|^2 =  7.617E-13

     Pert. #  1: Fermi energy shift (Ry) =    -1.5737E-10     0.0000E+00

      iter #   7 total cpu time :  2517.6 secs   av.it.:  16.8
      thresh= 8.727E-08 alpha_mix =  0.700 |ddv_scf|^2 =  9.437E-14

     Pert. #  1: Fermi energy shift (Ry) =    -5.4335E-12     0.0000E+00

      iter #   8 total cpu time :  2658.0 secs   av.it.:  16.9
      thresh= 3.072E-08 alpha_mix =  0.700 |ddv_scf|^2 =  1.173E-14

     Pert. #  1: Fermi energy shift (Ry) =     7.7734E-11     0.0000E+00

      iter #   9 total cpu time :  2805.9 secs   av.it.:  16.5
      thresh= 1.083E-08 alpha_mix =  0.700 |ddv_scf|^2 =  3.528E-15

     End of self-consistent calculation

     Convergence has been achieved 


     Representation #   3 mode #   3

     Self-consistent Calculation

     Pert. #  1: Fermi energy shift (Ry) =     4.3915E-07     0.0000E+00

      iter #   1 total cpu time :  2879.3 secs   av.it.:   5.6
      thresh= 1.000E-02 alpha_mix =  0.700 |ddv_scf|^2 =  4.680E-07

     Pert. #  1: Fermi energy shift (Ry) =     1.3727E-08     0.0000E+00

      iter #   2 total cpu time :  3015.9 secs   av.it.:  17.0
      thresh= 6.841E-05 alpha_mix =  0.700 |ddv_scf|^2 =  3.020E-07

     Pert. #  1: Fermi energy shift (Ry) =     1.4467E-08     0.0000E+00

      iter #   3 total cpu time :  3153.6 secs   av.it.:  16.3
      thresh= 5.495E-05 alpha_mix =  0.700 |ddv_scf|^2 =  2.803E-09

     Pert. #  1: Fermi energy shift (Ry) =    -1.3406E-09     0.0000E+00

      iter #   4 total cpu time :  3300.6 secs   av.it.:  17.1
      thresh= 5.294E-06 alpha_mix =  0.700 |ddv_scf|^2 =  2.959E-10

     Pert. #  1: Fermi energy shift (Ry) =    -3.8259E-09     0.0000E+00

      iter #   5 total cpu time :  3467.9 secs   av.it.:  16.6
      thresh= 1.720E-06 alpha_mix =  0.700 |ddv_scf|^2 =  9.325E-12

     Pert. #  1: Fermi energy shift (Ry) =     1.6335E-10     0.0000E+00

      iter #   6 total cpu time :  3607.7 secs   av.it.:  16.5
      thresh= 3.054E-07 alpha_mix =  0.700 |ddv_scf|^2 =  7.618E-13

     Pert. #  1: Fermi energy shift (Ry) =    -8.7326E-11     0.0000E+00

      iter #   7 total cpu time :  3750.0 secs   av.it.:  16.8
      thresh= 8.728E-08 alpha_mix =  0.700 |ddv_scf|^2 =  9.439E-14

     Pert. #  1: Fermi energy shift (Ry) =     1.9608E-10     0.0000E+00

      iter #   8 total cpu time :  3893.4 secs   av.it.:  16.9
      thresh= 3.072E-08 alpha_mix =  0.700 |ddv_scf|^2 =  1.173E-14

     Pert. #  1: Fermi energy shift (Ry) =     2.4672E-10     0.0000E+00

      iter #   9 total cpu time :  4028.0 secs   av.it.:  16.5
      thresh= 1.083E-08 alpha_mix =  0.700 |ddv_scf|^2 =  3.530E-15

     End of self-consistent calculation

     Convergence has been achieved 


     Representation #   4 mode #   4

     Self-consistent Calculation

     Pert. #  1: Fermi energy shift (Ry) =     7.1398E-07     0.0000E+00

      iter #   1 total cpu time :  4100.5 secs   av.it.:   5.6
      thresh= 1.000E-02 alpha_mix =  0.700 |ddv_scf|^2 =  4.680E-07

     Pert. #  1: Fermi energy shift (Ry) =     8.2031E-08     0.0000E+00

      iter #   2 total cpu time :  4247.8 secs   av.it.:  17.0
      thresh= 6.841E-05 alpha_mix =  0.700 |ddv_scf|^2 =  3.020E-07

     Pert. #  1: Fermi energy shift (Ry) =    -1.1903E-08     0.0000E+00

      iter #   3 total cpu time :  4386.9 secs   av.it.:  16.3
      thresh= 5.495E-05 alpha_mix =  0.700 |ddv_scf|^2 =  2.803E-09

     Pert. #  1: Fermi energy shift (Ry) =    -2.0233E-08     0.0000E+00

      iter #   4 total cpu time :  4560.1 secs   av.it.:  17.1
      thresh= 5.294E-06 alpha_mix =  0.700 |ddv_scf|^2 =  2.960E-10

     Pert. #  1: Fermi energy shift (Ry) =    -6.4044E-09     0.0000E+00

      iter #   5 total cpu time :  4724.5 secs   av.it.:  16.6
      thresh= 1.720E-06 alpha_mix =  0.700 |ddv_scf|^2 =  9.325E-12
