
     Program PWSCF v.6.7MaX starts on  3Jun2026 at 12:37: 1 

     This program is part of the open-source Quantum ESPRESSO suite
     for quantum simulation of materials; please cite
         "P. Giannozzi et al., J. Phys.:Condens. Matter 21 395502 (2009);
         "P. Giannozzi et al., J. Phys.:Condens. Matter 29 465901 (2017);
          URL http://www.quantum-espresso.org", 
     in publications or presentations arising from this work. More details at
     http://www.quantum-espresso.org/quote

     Parallel version (MPI), running on     6 processors

     MPI processes distributed on     1 nodes
     R & G space division:  proc/nbgrp/npool/nimage =       6
     Reading input from scf.in

     Current dimensions of program PWSCF are:
     Max number of different atomic species (ntypx) = 10
     Max number of k-points (npk) =  40000
     Max angular momentum in pseudopotentials (lmaxx) =  3
     file Mg.pbe-spnl-rrkjus_psl.1.0.0.UPF: wavefunction(s)  2P renormalized

     Subspace diagonalization in iterative solution of the eigenvalue problem:
     a serial algorithm will be used


     Parallelization info
     --------------------
     sticks:   dense  smooth     PW     G-vecs:    dense   smooth      PW
     Min         445     223     66                15129     5357     867
     Max         447     225     67                15130     5358     869
     Sum        2677    1345    397                90777    32143    5209



     bravais-lattice index     =            0
     lattice parameter (alat)  =       8.9775  a.u.
     unit-cell volume          =     511.6301 (a.u.)^3
     number of atoms/cell      =           38
     number of atomic types    =            3
     number of electrons       =        64.00
     number of Kohn-Sham states=           38
     kinetic-energy cutoff     =      60.0000  Ry
     charge density cutoff     =     480.0000  Ry
     scf convergence threshold =      1.0E-12
     mixing beta               =       0.4000
     number of iterations used =            8  plain     mixing
     Exchange-correlation= PBE
                           (   1   4   3   4   0   0   0)

     celldm(1)=   8.977533  celldm(2)=   0.000000  celldm(3)=   0.000000
     celldm(4)=   0.000000  celldm(5)=   0.000000  celldm(6)=   0.000000

     crystal axes: (cart. coord. in units of alat)
               a(1) = (   0.000000   0.707107   0.707107 )  
               a(2) = (   0.707107   0.000000   0.707107 )  
               a(3) = (   0.707107   0.707107   0.000000 )  

     reciprocal axes: (cart. coord. in units 2 pi/alat)
               b(1) = ( -0.707107  0.707107  0.707107 )  
               b(2) = (  0.707107 -0.707107  0.707107 )  
               b(3) = (  0.707107  0.707107 -0.707107 )  


     PseudoPot. # 1 for Li read from file:
     ./pseudo/Li.pbe-s-rrkjus_psl.1.0.0.UPF
     MD5 check sum: a07f98b50cb2323aa4dab8f6b8331f41
     Pseudo is Ultrasoft, Zval =  3.0
     Generated using &quot;atomic&quot; code by A. Dal Corso  v.6.3MaX
     Using radial grid of 1017 points,  4 beta functions with: 
                l(1) =   0
                l(2) =   0
                l(3) =   1
                l(4) =   1
     Q(r) pseudized with 0 coefficients 


     PseudoPot. # 2 for Mg read from file:
     ./pseudo/Mg.pbe-spnl-rrkjus_psl.1.0.0.UPF
     MD5 check sum: 7bbac6cb09d08803af897bb2209b4f8d
     Pseudo is Ultrasoft + core correction, Zval = 10.0
     Generated using &quot;atomic&quot; code by A. Dal Corso  v.6.3
     Using radial grid of 1129 points,  4 beta functions with: 
                l(1) =   0
                l(2) =   0
                l(3) =   1
                l(4) =   1
     Q(r) pseudized with 0 coefficients 


     PseudoPot. # 3 for H  read from file:
     ./pseudo/H.pbe-rrkjus_psl.1.0.0.UPF
     MD5 check sum: af0d83a6ef17603a7b7645159cc407bf
     Pseudo is Ultrasoft, Zval =  1.0
     Generated using &quot;atomic&quot; code by A. Dal Corso  v.6.3MaX
     Using radial grid of  929 points,  2 beta functions with: 
                l(1) =   0
                l(2) =   0
     Q(r) pseudized with 0 coefficients 


     atomic species   valence    mass     pseudopotential
        Li             3.00     6.94100     Li( 1.00)
        Mg            10.00    24.30500     Mg( 1.00)
        H              1.00     1.00800     H ( 1.00)

     No symmetry found



   Cartesian axes

     site n.     atom                  positions (alat units)
         1           Li  tau(   1) = (   0.5303301   0.8838835   0.5303301  )
         2           Li  tau(   2) = (   0.5303301   0.5303301   0.8838835  )
         3           Li  tau(   3) = (   0.8838835   0.5303301   0.5303301  )
         4           Li  tau(   4) = (   0.8838835   0.8838835   0.8838835  )
         5           Mg  tau(   5) = (  -0.0000000  -0.0000000   0.0000000  )
         6           Mg  tau(   6) = (   0.3535534   0.3535534   0.3535534  )
         7           H   tau(   7) = (   0.9439955   0.9439955   1.1773248  )
         8           H   tau(   8) = (   1.1773248   0.9439955   0.9439955  )
         9           H   tau(   9) = (   0.9439955   1.1773248   0.9439955  )
        10           H   tau(  10) = (   0.8237715   0.8237715   0.5904421  )
        11           H   tau(  11) = (   0.8237715   0.5904421   0.8237715  )
        12           H   tau(  12) = (   0.5904421   0.8237715   0.8237715  )
        13           H   tau(  13) = (   1.1773248   1.1773248   1.1773248  )
        14           H   tau(  14) = (   0.5904421   0.5904421   0.5904421  )
        15           H   tau(  15) = (   0.6160918   1.0546263   0.7981218  )
        16           H   tau(  16) = (   0.7981218   0.6160918   1.0546263  )
        17           H   tau(  17) = (   1.0546263   0.7981218   0.6160918  )
        18           H   tau(  18) = (   0.7131406   1.1516751   0.9696452  )
        19           H   tau(  19) = (   1.1516751   0.9696452   0.7131406  )
        20           H   tau(  20) = (   0.9696452   0.7131406   1.1516751  )
        21           H   tau(  21) = (   1.1516751   0.7131406   0.9696452  )
        22           H   tau(  22) = (   0.9696452   1.1516751   0.7131406  )
        23           H   tau(  23) = (   0.7131406   0.9696452   1.1516751  )
        24           H   tau(  24) = (   1.0546263   0.6160918   0.7981218  )
        25           H   tau(  25) = (   0.6160918   0.7981218   1.0546263  )
        26           H   tau(  26) = (   0.7981218   1.0546263   0.6160918  )
        27           H   tau(  27) = (   0.7981218   0.3595872   0.7981218  )
        28           H   tau(  28) = (   0.3595872   0.6160918   0.6160918  )
        29           H   tau(  29) = (   1.4081797   1.1516751   1.1516751  )
        30           H   tau(  30) = (   0.9696452   0.9696452   1.4081797  )
        31           H   tau(  31) = (   0.9696452   1.4081797   0.9696452  )
        32           H   tau(  32) = (   0.7981218   0.7981218   0.3595872  )
        33           H   tau(  33) = (   0.6160918   0.3595872   0.6160918  )
        34           H   tau(  34) = (   1.4081797   0.9696452   0.9696452  )
        35           H   tau(  35) = (   1.1516751   1.4081797   1.1516751  )
        36           H   tau(  36) = (   0.3595872   0.7981218   0.7981218  )
        37           H   tau(  37) = (   0.6160918   0.6160918   0.3595872  )
        38           H   tau(  38) = (   1.1516751   1.1516751   1.4081797  )

     number of k points=   260  Methfessel-Paxton smearing, width (Ry)=  0.0200

     Number of k-points >= 100: set verbosity='high' to print them.

     Dense  grid:    90777 G-vectors     FFT dimensions: (  64,  64,  64)

     Smooth grid:    32143 G-vectors     FFT dimensions: (  45,  45,  45)

     Estimated max dynamical RAM per process >     145.90 MB

     Estimated total dynamical RAM >     875.39 MB

     Check: negative core charge=   -0.000009

     Initial potential from superposition of free atoms

     starting charge   63.97941, renormalised to   64.00000
     Starting wfcs are   62 randomized atomic wfcs

     total cpu time spent up to now is       16.9 secs

     Self-consistent Calculation

     iteration #  1     ecut=    60.00 Ry     beta= 0.40
     Davidson diagonalization with overlap
     ethr =  1.00E-02,  avg # of iterations =  4.2

     total cpu time spent up to now is       51.3 secs

     total energy              =    -345.49289320 Ry
     estimated scf accuracy    <       1.22203960 Ry

     iteration #  2     ecut=    60.00 Ry     beta= 0.40
     Davidson diagonalization with overlap
     ethr =  1.91E-03,  avg # of iterations =  2.1

     total cpu time spent up to now is       82.8 secs

     total energy              =    -345.49455228 Ry
     estimated scf accuracy    <       0.22897220 Ry

     iteration #  3     ecut=    60.00 Ry     beta= 0.40
     Davidson diagonalization with overlap
     ethr =  3.58E-04,  avg # of iterations =  3.6

     total cpu time spent up to now is      113.0 secs

     total energy              =    -345.50227109 Ry
     estimated scf accuracy    <       0.02316650 Ry

     iteration #  4     ecut=    60.00 Ry     beta= 0.40
     Davidson diagonalization with overlap
     ethr =  3.62E-05,  avg # of iterations =  5.8

     total cpu time spent up to now is      151.3 secs

     total energy              =    -345.50533480 Ry
     estimated scf accuracy    <       0.00046970 Ry

     iteration #  5     ecut=    60.00 Ry     beta= 0.40
     Davidson diagonalization with overlap
     ethr =  7.34E-07,  avg # of iterations =  4.8

     total cpu time spent up to now is      194.2 secs

     total energy              =    -345.50545696 Ry
     estimated scf accuracy    <       0.00003320 Ry

     iteration #  6     ecut=    60.00 Ry     beta= 0.40
     Davidson diagonalization with overlap
     ethr =  5.19E-08,  avg # of iterations =  3.4

     total cpu time spent up to now is      231.7 secs

     total energy              =    -345.50546111 Ry
     estimated scf accuracy    <       0.00000452 Ry

     iteration #  7     ecut=    60.00 Ry     beta= 0.40
     Davidson diagonalization with overlap
     ethr =  7.06E-09,  avg # of iterations =  2.1

     total cpu time spent up to now is      264.7 secs

     total energy              =    -345.50546204 Ry
     estimated scf accuracy    <       0.00000006 Ry

     iteration #  8     ecut=    60.00 Ry     beta= 0.40
     Davidson diagonalization with overlap
     ethr =  9.07E-11,  avg # of iterations =  4.2

     total cpu time spent up to now is      304.8 secs

     total energy              =    -345.50546206 Ry
     estimated scf accuracy    <       0.00000001 Ry

     iteration #  9     ecut=    60.00 Ry     beta= 0.40
     Davidson diagonalization with overlap
     ethr =  2.31E-11,  avg # of iterations =  2.1

     total cpu time spent up to now is      334.3 secs

     total energy              =    -345.50546207 Ry
     estimated scf accuracy    <          8.8E-10 Ry

     iteration # 10     ecut=    60.00 Ry     beta= 0.40
     Davidson diagonalization with overlap
     ethr =  1.37E-12,  avg # of iterations =  4.0

     total cpu time spent up to now is      370.8 secs

     total energy              =    -345.50546207 Ry
     estimated scf accuracy    <          2.3E-10 Ry

     iteration # 11     ecut=    60.00 Ry     beta= 0.40
     Davidson diagonalization with overlap
     ethr =  3.55E-13,  avg # of iterations =  2.0

     total cpu time spent up to now is      399.4 secs

     total energy              =    -345.50546207 Ry
     estimated scf accuracy    <          2.0E-11 Ry

     iteration # 12     ecut=    60.00 Ry     beta= 0.40
     Davidson diagonalization with overlap
     ethr =  1.00E-13,  avg # of iterations =  2.3

     total cpu time spent up to now is      427.5 secs

     total energy              =    -345.50546207 Ry
     estimated scf accuracy    <          1.6E-12 Ry

     iteration # 13     ecut=    60.00 Ry     beta= 0.40
     Davidson diagonalization with overlap
     ethr =  1.00E-13,  avg # of iterations =  1.0

     total cpu time spent up to now is      451.6 secs

     End of self-consistent calculation

     Number of k-points >= 100: set verbosity='high' to print the bands.

     the Fermi energy is    14.9678 ev

!    total energy              =    -345.50546207 Ry
     estimated scf accuracy    <          7.6E-14 Ry
     smearing contrib. (-TS)   =       0.00058160 Ry
     internal energy E=F+TS    =    -345.50604367 Ry

     The total energy is F=E-TS. E is the sum of the following terms:
     one-electron contribution =    -153.07728077 Ry
     hartree contribution      =      99.93795895 Ry
     xc contribution           =     -78.67031677 Ry
     ewald contribution        =    -213.69640509 Ry

     convergence has been achieved in  13 iterations

     Forces acting on atoms (cartesian axes, Ry/au):

     atom    1 type  1   force =    -0.00000000   -0.00000000    0.00000000
     atom    2 type  1   force =    -0.00000000   -0.00000000   -0.00000000
     atom    3 type  1   force =     0.00000000    0.00000000    0.00000000
     atom    4 type  1   force =     0.00000000    0.00000000    0.00000000
     atom    5 type  2   force =     0.00000000    0.00000002   -0.00000000
     atom    6 type  2   force =    -0.00000000   -0.00000002    0.00000000
     atom    7 type  3   force =    -0.00112175   -0.00112175    0.00112175
     atom    8 type  3   force =     0.00112175   -0.00112175   -0.00112175
     atom    9 type  3   force =    -0.00112175    0.00112175   -0.00112175
     atom   10 type  3   force =     0.00112175    0.00112175   -0.00112175
     atom   11 type  3   force =     0.00112175   -0.00112175    0.00112175
     atom   12 type  3   force =    -0.00112175    0.00112175    0.00112175
     atom   13 type  3   force =     0.00112175    0.00112175    0.00112175
     atom   14 type  3   force =    -0.00112175   -0.00112175   -0.00112175
     atom   15 type  3   force =    -0.00095384   -0.00093811    0.00095384
     atom   16 type  3   force =     0.00095385   -0.00095385   -0.00093810
     atom   17 type  3   force =    -0.00093811    0.00095385   -0.00095385
     atom   18 type  3   force =     0.00093811    0.00095384   -0.00095384
     atom   19 type  3   force =     0.00095384   -0.00095385    0.00093811
     atom   20 type  3   force =    -0.00095385    0.00093811    0.00095385
     atom   21 type  3   force =     0.00095384    0.00093811   -0.00095384
     atom   22 type  3   force =    -0.00095385    0.00095385    0.00093810
     atom   23 type  3   force =     0.00093811   -0.00095385    0.00095385
     atom   24 type  3   force =    -0.00093811   -0.00095384    0.00095385
     atom   25 type  3   force =    -0.00095384    0.00095385   -0.00093811
     atom   26 type  3   force =     0.00095385   -0.00093811   -0.00095385
     atom   27 type  3   force =     0.00095385    0.00093811    0.00095385
     atom   28 type  3   force =     0.00093811   -0.00095385   -0.00095385
     atom   29 type  3   force =    -0.00093811    0.00095385    0.00095385
     atom   30 type  3   force =    -0.00095385   -0.00095385   -0.00093811
     atom   31 type  3   force =    -0.00095385   -0.00093811   -0.00095385
     atom   32 type  3   force =     0.00095385    0.00095385    0.00093811
     atom   33 type  3   force =    -0.00095385    0.00093811   -0.00095385
     atom   34 type  3   force =    -0.00093811   -0.00095384   -0.00095385
     atom   35 type  3   force =     0.00095385   -0.00093811    0.00095385
     atom   36 type  3   force =     0.00093811    0.00095385    0.00095385
     atom   37 type  3   force =    -0.00095385   -0.00095384    0.00093811
     atom   38 type  3   force =     0.00095385    0.00095385   -0.00093811

     Total force =     0.009746     Total SCF correction =     0.000000


     Computing stress (Cartesian axis) and pressure

          total   stress  (Ry/bohr**3)                   (kbar)     P=     2463.50
   0.01674652   0.00000000  -0.00000000         2463.50        0.00       -0.00
   0.00000000   0.01674652   0.00000000            0.00     2463.50        0.00
  -0.00000000   0.00000000   0.01674652           -0.00        0.00     2463.50


     Writing output data file ./out/li2mgh16.save/

     init_run     :     15.65s CPU     16.81s WALL (       1 calls)
     electrons    :    409.22s CPU    434.63s WALL (       1 calls)
     forces       :      5.22s CPU      5.30s WALL (       1 calls)
     stress       :      6.52s CPU      6.57s WALL (       1 calls)

     Called by init_run:
     wfcinit      :     15.39s CPU     16.54s WALL (       1 calls)
     potinit      :      0.07s CPU      0.07s WALL (       1 calls)
     hinit0       :      0.14s CPU      0.14s WALL (       1 calls)

     Called by electrons:
     c_bands      :    367.88s CPU    389.21s WALL (      13 calls)
     sum_band     :     40.85s CPU     44.89s WALL (      13 calls)
     v_of_rho     :      0.23s CPU      0.24s WALL (      14 calls)
     newd         :      0.26s CPU      0.27s WALL (      14 calls)
     mix_rho      :      0.04s CPU      0.04s WALL (      13 calls)

     Called by c_bands:
     init_us_2    :      2.54s CPU      2.56s WALL (    7540 calls)
     cegterg      :    362.69s CPU    383.99s WALL (    3380 calls)

     Called by *egterg:
     cdiaghg      :     27.33s CPU     27.72s WALL (   14206 calls)
     h_psi        :    197.68s CPU    218.41s WALL (   14466 calls)
     s_psi        :     39.10s CPU     39.34s WALL (   14466 calls)
     g_psi        :      1.01s CPU      1.02s WALL (   10826 calls)

     Called by h_psi:
     h_psi:calbec :     39.32s CPU     42.62s WALL (   14466 calls)
     vloc_psi     :    119.09s CPU    136.15s WALL (   14466 calls)
     add_vuspsi   :     38.89s CPU     39.25s WALL (   14466 calls)

     General routines
     calbec       :     60.26s CPU     64.79s WALL (   19146 calls)
     fft          :      0.15s CPU      0.16s WALL (     205 calls)
     ffts         :      0.01s CPU      0.01s WALL (      27 calls)
     fftw         :    129.22s CPU    147.26s WALL (  803516 calls)
     interpolate  :      0.01s CPU      0.01s WALL (      14 calls)

     Parallel routines
     fft_scatt_xy :     11.97s CPU     13.60s WALL (  803748 calls)
     fft_scatt_yz :     51.81s CPU     59.10s WALL (  803748 calls)

     PWSCF        :   7m17.26s CPU   7m44.71s WALL


   This run was terminated on:  12:44:46   3Jun2026            

=------------------------------------------------------------------------------=
   JOB DONE.
=------------------------------------------------------------------------------=
