
     Program PWSCF v.6.7MaX starts on 31May2026 at  6: 0:22 

     This program is part of the open-source Quantum ESPRESSO suite
     for quantum simulation of materials; please cite
         "P. Giannozzi et al., J. Phys.:Condens. Matter 21 395502 (2009);
         "P. Giannozzi et al., J. Phys.:Condens. Matter 29 465901 (2017);
          URL http://www.quantum-espresso.org", 
     in publications or presentations arising from this work. More details at
     http://www.quantum-espresso.org/quote

     Parallel version (MPI), running on     9 processors

     MPI processes distributed on     1 nodes
     R & G space division:  proc/nbgrp/npool/nimage =       9
     Reading input from vc-relax.in

     Current dimensions of program PWSCF are:
     Max number of different atomic species (ntypx) = 10
     Max number of k-points (npk) =  40000
     Max angular momentum in pseudopotentials (lmaxx) =  3
     file Y.pbe-spn-rrkjus_psl.1.0.0.UPF: wavefunction(s)  4S renormalized

     Subspace diagonalization in iterative solution of the eigenvalue problem:
     a serial algorithm will be used


     Parallelization info
     --------------------
     sticks:   dense  smooth     PW     G-vecs:    dense   smooth      PW
     Min         280     112     34                17046     4316     742
     Max         281     113     35                17055     4321     747
     Sum        2527    1015    313               153469    38871    6703



     bravais-lattice index     =            4
     lattice parameter (alat)  =       6.7700  a.u.
     unit-cell volume          =     401.3571 (a.u.)^3
     number of atoms/cell      =           20
     number of atomic types    =            2
     number of electrons       =        40.00
     number of Kohn-Sham states=           24
     kinetic-energy cutoff     =      80.0000  Ry
     charge density cutoff     =     800.0000  Ry
     scf convergence threshold =      1.0E-10
     mixing beta               =       0.3000
     number of iterations used =            8  plain     mixing
     energy convergence thresh.=      1.0E-06
     force convergence thresh. =      1.0E-04
     press convergence thresh. =      5.0E-01
     Exchange-correlation= PBE
                           (   1   4   3   4   0   0   0)
     nstep                     =          200


     celldm(1)=   6.770000  celldm(2)=   0.000000  celldm(3)=   1.493600
     celldm(4)=   0.000000  celldm(5)=   0.000000  celldm(6)=   0.000000

     crystal axes: (cart. coord. in units of alat)
               a(1) = (   1.000000   0.000000   0.000000 )  
               a(2) = (  -0.500000   0.866025   0.000000 )  
               a(3) = (   0.000000   0.000000   1.493600 )  

     reciprocal axes: (cart. coord. in units 2 pi/alat)
               b(1) = (  1.000000  0.577350 -0.000000 )  
               b(2) = (  0.000000  1.154701  0.000000 )  
               b(3) = (  0.000000 -0.000000  0.669523 )  


     PseudoPot. # 1 for Y  read from file:
     ./pseudo/Y.pbe-spn-rrkjus_psl.1.0.0.UPF
     MD5 check sum: 5fe32e6a006803c2ec2edff47948a3c8
     Pseudo is Ultrasoft + core correction, Zval = 11.0
     Generated using &quot;atomic&quot; code by A. Dal Corso  v.6.2.2
     Using radial grid of 1223 points,  6 beta functions with: 
                l(1) =   0
                l(2) =   0
                l(3) =   1
                l(4) =   1
                l(5) =   2
                l(6) =   2
     Q(r) pseudized with 0 coefficients 


     PseudoPot. # 2 for H  read from file:
     ./pseudo/H.pbe-rrkjus_psl.1.0.0.UPF
     MD5 check sum: 3f4114867bd07edc7f1424d066fc1888
     Pseudo is Ultrasoft, Zval =  1.0
     Generated using &quot;atomic&quot; code by A. Dal Corso  v.6.3MaX
     Using radial grid of  929 points,  2 beta functions with: 
                l(1) =   0
                l(2) =   0
     Q(r) pseudized with 0 coefficients 


     atomic species   valence    mass     pseudopotential
        Y             11.00    88.90590     Y ( 1.00)
        H              1.00     1.00800     H ( 1.00)

     No symmetry found



   Cartesian axes

     site n.     atom                  positions (alat units)
         1           Y   tau(   1) = (   0.5000000   0.2886751   0.3734000  )
         2           Y   tau(   2) = (  -0.0000000   0.5773503   1.1202000  )
         3           H   tau(   3) = (   0.0000000   0.0000000   0.3734000  )
         4           H   tau(   4) = (   0.0000000   0.0000000   1.1202000  )
         5           H   tau(   5) = (  -0.0000000   0.5773503   0.2238906  )
         6           H   tau(   6) = (   0.5000000   0.2886751   1.2697094  )
         7           H   tau(   7) = (  -0.0000000   0.5773503   0.9706906  )
         8           H   tau(   8) = (   0.5000000   0.2886751   0.5229094  )
         9           H   tau(   9) = (   0.0000000   0.2710660   0.6577814  )
        10           H   tau(  10) = (   0.2652500   0.7304924   0.6577814  )
        11           H   tau(  11) = (   0.5000000   0.5949595   0.6577814  )
        12           H   tau(  12) = (   0.7652500   0.1355330   0.8358186  )
        13           H   tau(  13) = (   0.2347500   0.1355330   0.8358186  )
        14           H   tau(  14) = (  -0.2652500   0.7304924   0.8358186  )
        15           H   tau(  15) = (   0.0000000   0.2710660   1.4045814  )
        16           H   tau(  16) = (   0.2652500   0.7304924   1.4045814  )
        17           H   tau(  17) = (   0.5000000   0.5949595   1.4045814  )
        18           H   tau(  18) = (   0.7652500   0.1355330   0.0890186  )
        19           H   tau(  19) = (   0.2347500   0.1355330   0.0890186  )
        20           H   tau(  20) = (  -0.2652500   0.7304924   0.0890186  )

     number of k points=   580  Methfessel-Paxton smearing, width (Ry)=  0.0100

     Number of k-points >= 100: set verbosity='high' to print them.

     Dense  grid:   153469 G-vectors     FFT dimensions: (  64,  64,  96)

     Smooth grid:    38871 G-vectors     FFT dimensions: (  40,  40,  60)

     Estimated max dynamical RAM per process >     196.88 MB

     Estimated total dynamical RAM >       1.73 GB

     Initial potential from superposition of free atoms

     starting charge   39.99166, renormalised to   40.00000
     Starting wfcs are   44 randomized atomic wfcs

     total cpu time spent up to now is       17.3 secs

     Self-consistent Calculation

     iteration #  1     ecut=    80.00 Ry     beta= 0.30
     Davidson diagonalization with overlap
     ethr =  1.00E-02,  avg # of iterations =  2.4

     total cpu time spent up to now is       49.4 secs

     total energy              =    -173.09342560 Ry
     estimated scf accuracy    <       0.86223287 Ry

     iteration #  2     ecut=    80.00 Ry     beta= 0.30
     Davidson diagonalization with overlap
     ethr =  2.16E-03,  avg # of iterations =  1.0

     total cpu time spent up to now is       69.8 secs

     total energy              =    -172.94690339 Ry
     estimated scf accuracy    <       0.32115500 Ry

     iteration #  3     ecut=    80.00 Ry     beta= 0.30
     Davidson diagonalization with overlap
     ethr =  8.03E-04,  avg # of iterations =  2.0

     total cpu time spent up to now is       96.3 secs

     total energy              =    -172.99212942 Ry
     estimated scf accuracy    <       0.01772007 Ry

     iteration #  4     ecut=    80.00 Ry     beta= 0.30
     Davidson diagonalization with overlap
     ethr =  4.43E-05,  avg # of iterations =  5.2

     total cpu time spent up to now is      128.2 secs

     total energy              =    -172.99426479 Ry
     estimated scf accuracy    <       0.00477976 Ry

     iteration #  5     ecut=    80.00 Ry     beta= 0.30
     Davidson diagonalization with overlap
     ethr =  1.19E-05,  avg # of iterations =  2.8

     total cpu time spent up to now is      155.5 secs

     total energy              =    -172.99462332 Ry
     estimated scf accuracy    <       0.00109895 Ry

     iteration #  6     ecut=    80.00 Ry     beta= 0.30
     Davidson diagonalization with overlap
     ethr =  2.75E-06,  avg # of iterations =  3.4

     total cpu time spent up to now is      180.6 secs

     total energy              =    -172.99471323 Ry
     estimated scf accuracy    <       0.00012776 Ry

     iteration #  7     ecut=    80.00 Ry     beta= 0.30
     Davidson diagonalization with overlap
     ethr =  3.19E-07,  avg # of iterations =  2.1

     total cpu time spent up to now is      206.3 secs

     total energy              =    -172.99472377 Ry
     estimated scf accuracy    <       0.00001549 Ry

     iteration #  8     ecut=    80.00 Ry     beta= 0.30
     Davidson diagonalization with overlap
     ethr =  3.87E-08,  avg # of iterations =  2.3

     total cpu time spent up to now is      234.8 secs

     total energy              =    -172.99472606 Ry
     estimated scf accuracy    <       0.00000463 Ry

     iteration #  9     ecut=    80.00 Ry     beta= 0.30
     Davidson diagonalization with overlap
     ethr =  1.16E-08,  avg # of iterations =  2.0

     total cpu time spent up to now is      258.6 secs

     total energy              =    -172.99472636 Ry
     estimated scf accuracy    <       0.00000046 Ry

     iteration # 10     ecut=    80.00 Ry     beta= 0.30
     Davidson diagonalization with overlap
     ethr =  1.14E-09,  avg # of iterations =  3.6

     total cpu time spent up to now is      288.7 secs

     total energy              =    -172.99472644 Ry
     estimated scf accuracy    <       0.00000038 Ry

     iteration # 11     ecut=    80.00 Ry     beta= 0.30
     Davidson diagonalization with overlap
     ethr =  9.46E-10,  avg # of iterations =  2.1

     total cpu time spent up to now is      314.4 secs

     total energy              =    -172.99472653 Ry
     estimated scf accuracy    <       0.00000003 Ry

     iteration # 12     ecut=    80.00 Ry     beta= 0.30
     Davidson diagonalization with overlap
     ethr =  8.66E-11,  avg # of iterations =  2.0

     total cpu time spent up to now is      338.5 secs

     total energy              =    -172.99472653 Ry
     estimated scf accuracy    <          7.3E-09 Ry

     iteration # 13     ecut=    80.00 Ry     beta= 0.30
     Davidson diagonalization with overlap
     ethr =  1.83E-11,  avg # of iterations =  2.1

     total cpu time spent up to now is      364.2 secs

     total energy              =    -172.99472653 Ry
     estimated scf accuracy    <          2.6E-10 Ry

     iteration # 14     ecut=    80.00 Ry     beta= 0.30
     Davidson diagonalization with overlap
     ethr =  6.38E-13,  avg # of iterations =  2.6

     total cpu time spent up to now is      390.5 secs

     End of self-consistent calculation

     Number of k-points >= 100: set verbosity='high' to print the bands.

     the Fermi energy is    15.7540 ev

!    total energy              =    -172.99472653 Ry
     estimated scf accuracy    <          1.9E-11 Ry
     smearing contrib. (-TS)   =       0.00004594 Ry
     internal energy E=F+TS    =    -172.99477248 Ry

     The total energy is F=E-TS. E is the sum of the following terms:
     one-electron contribution =      -4.02046907 Ry
     hartree contribution      =      25.16772280 Ry
     xc contribution           =     -53.04722617 Ry
     ewald contribution        =    -141.09480004 Ry

     convergence has been achieved in  14 iterations

     Forces acting on atoms (cartesian axes, Ry/au):

     atom    1 type  1   force =     0.00155588   -0.06509275  -16.76512731
     atom    2 type  1   force =     0.05559419   -0.03389407   16.76512734
     atom    3 type  2   force =    -0.00284013    0.01548144   -0.01641190
     atom    4 type  2   force =    -0.01198728    0.01020037    0.01641192
     atom    5 type  2   force =     0.00051901    0.00182157    0.04247263
     atom    6 type  2   force =    -0.00183705    0.00046138   -0.04247259
     atom    7 type  2   force =     0.00526739    0.00387056  -16.88259830
     atom    8 type  2   force =    -0.00598569   -0.00262639   16.88259828
     atom    9 type  2   force =     0.01036248    0.02582794   -0.02199586
     atom   10 type  2   force =    -0.03611530   -0.00353367   -0.01349523
     atom   11 type  2   force =     0.01363390    0.17368353    0.18641268
     atom   12 type  2   force =    -0.02754885    0.00393979    0.02199595
     atom   13 type  2   force =     0.02111788    0.02950996    0.01349528
     atom   14 type  2   force =    -0.15723150    0.07503454   -0.18641281
     atom   15 type  2   force =     0.00511666   -0.14115455    0.16124992
     atom   16 type  2   force =     0.10337800    0.07067677    0.18126573
     atom   17 type  2   force =     0.00161130   -0.02240866   -0.00752006
     atom   18 type  2   force =     0.11968526   -0.07500848   -0.16125006
     atom   19 type  2   force =    -0.11289694   -0.05418955   -0.18126572
     atom   20 type  2   force =     0.01860079   -0.01259975    0.00752011

     Total force =    33.652968     Total SCF correction =     0.000009


     Computing stress (Cartesian axis) and pressure

          total   stress  (Ry/bohr**3)                   (kbar)     P=     5470.33
   0.00771735  -0.00031019   0.00125611         1135.26      -45.63      184.78
  -0.00031019   0.00807553   0.00072522          -45.63     1187.95      106.68
   0.00125611   0.00072522   0.09576674          184.78      106.68    14087.77


     BFGS Geometry Optimization
     Energy error            =      0.0E+00
     Gradient error          =      1.7E+01
     Cell gradient error     =      7.9E-02


     number of scf cycles    =   1
     number of bfgs steps    =   0

     enthalpy new            =    -166.1738013592 Ry

     new trust radius        =       0.5000000000 bohr
     new conv_thr            =            1.0E-10 Ry

     new unit-cell volume =    419.06163 a.u.^3 (    62.09853 Ang^3 )
     density =      5.23994 g/cm^3

CELL_PARAMETERS (alat=  6.77000000)
   0.993131018  -0.000229668   0.000930037
  -0.496764407   0.860421191  -0.000000001
   0.001389103   0.000801998   1.580711876

ATOMIC_POSITIONS (crystal)
Y             0.6665091018        0.3330044908        0.2008962605
Y             0.3334908982        0.6664954877        0.7991037395
H             0.0000266769        0.0000782029        0.2499519309
H            -0.0000266769        0.0000515261        0.7500480692
H             0.3333401712        0.6666759015        0.1500243990
H             0.6666598289        0.3333356306        0.8499756011
H             0.3333661188        0.6666862517        0.6004521973
H             0.6666338813        0.3333200331        0.3995478027
H             0.1566105657        0.3131304672        0.4403355759
H             0.6868330837        0.8434821501        0.4403604735
H             0.8439983155        0.6878773442        0.4409459881
H             0.8433894345        0.1565199014        0.5596644244
H             0.3131669163        0.1566490665        0.5596395266
H             0.1560016839        0.8438790292        0.5590540115
H             0.1561658698        0.3122869725        0.9408722883
H             0.6876307494        0.8438570163        0.9409309131
H             0.8434504513        0.6868868050        0.9403779743
H             0.8438341308        0.1561211025        0.0591277113
H             0.3123692504        0.1562262671        0.0590690870
H             0.1565495486        0.8434363537        0.0596220258



     Writing output data file ./out/yh9.save/
     NEW-OLD atomic charge density approx. for the potential
     extrapolated charge   41.68957, renormalised to   40.00000

     total cpu time spent up to now is      405.8 secs

     Self-consistent Calculation

     iteration #  1     ecut=    80.00 Ry     beta= 0.30
     Davidson diagonalization with overlap
     c_bands:  1 eigenvalues not converged
     c_bands:  1 eigenvalues not converged
     c_bands:  1 eigenvalues not converged
     c_bands:  1 eigenvalues not converged
     c_bands:  1 eigenvalues not converged
     c_bands:  1 eigenvalues not converged
     c_bands:  1 eigenvalues not converged
     c_bands:  1 eigenvalues not converged
     c_bands:  1 eigenvalues not converged
     c_bands:  1 eigenvalues not converged
     c_bands:  1 eigenvalues not converged
     c_bands:  1 eigenvalues not converged
     c_bands:  1 eigenvalues not converged
     c_bands:  1 eigenvalues not converged
     c_bands:  1 eigenvalues not converged
     c_bands:  1 eigenvalues not converged
     c_bands:  1 eigenvalues not converged
     c_bands:  1 eigenvalues not converged
     c_bands:  1 eigenvalues not converged
     c_bands:  1 eigenvalues not converged
     c_bands:  1 eigenvalues not converged
     c_bands:  1 eigenvalues not converged
     c_bands:  1 eigenvalues not converged
     c_bands:  1 eigenvalues not converged
     c_bands:  1 eigenvalues not converged
     c_bands:  1 eigenvalues not converged
     c_bands:  1 eigenvalues not converged
     c_bands:  1 eigenvalues not converged
     c_bands:  1 eigenvalues not converged
     c_bands:  1 eigenvalues not converged
     c_bands:  1 eigenvalues not converged
     c_bands:  1 eigenvalues not converged
     c_bands:  1 eigenvalues not converged
     c_bands:  1 eigenvalues not converged
     c_bands:  1 eigenvalues not converged
     c_bands:  1 eigenvalues not converged
     c_bands:  1 eigenvalues not converged
     c_bands:  1 eigenvalues not converged
     c_bands:  1 eigenvalues not converged
     c_bands:  1 eigenvalues not converged
     c_bands:  1 eigenvalues not converged
     c_bands:  1 eigenvalues not converged
     c_bands:  1 eigenvalues not converged
     c_bands:  1 eigenvalues not converged
     c_bands:  1 eigenvalues not converged
     ethr =  1.00E-06,  avg # of iterations = 16.9

     total cpu time spent up to now is      516.8 secs

     total energy              =    -184.40441583 Ry
     estimated scf accuracy    <       1.06473931 Ry

     iteration #  2     ecut=    80.00 Ry     beta= 0.30
     Davidson diagonalization with overlap
     ethr =  2.66E-03,  avg # of iterations =  2.0

     total cpu time spent up to now is      543.7 secs

     total energy              =    -184.61772051 Ry
     estimated scf accuracy    <       0.09575300 Ry

     iteration #  3     ecut=    80.00 Ry     beta= 0.30
     Davidson diagonalization with overlap
     ethr =  2.39E-04,  avg # of iterations =  2.4

     total cpu time spent up to now is      566.9 secs

     total energy              =    -184.61401523 Ry
     estimated scf accuracy    <       0.04287574 Ry

     iteration #  4     ecut=    80.00 Ry     beta= 0.30
     Davidson diagonalization with overlap
     ethr =  1.07E-04,  avg # of iterations =  2.1

     total cpu time spent up to now is      592.0 secs

     total energy              =    -184.61621325 Ry
     estimated scf accuracy    <       0.00687348 Ry

     iteration #  5     ecut=    80.00 Ry     beta= 0.30
     Davidson diagonalization with overlap
     ethr =  1.72E-05,  avg # of iterations =  5.9

     total cpu time spent up to now is      626.4 secs

     total energy              =    -184.61926088 Ry
     estimated scf accuracy    <       0.00615419 Ry

     iteration #  6     ecut=    80.00 Ry     beta= 0.30
     Davidson diagonalization with overlap
     ethr =  1.54E-05,  avg # of iterations =  1.0

     total cpu time spent up to now is      646.9 secs

     total energy              =    -184.61757129 Ry
     estimated scf accuracy    <       0.00500254 Ry

     iteration #  7     ecut=    80.00 Ry     beta= 0.30
     Davidson diagonalization with overlap
     ethr =  1.25E-05,  avg # of iterations =  2.0

     total cpu time spent up to now is      672.1 secs

     total energy              =    -184.61835191 Ry
     estimated scf accuracy    <       0.00005468 Ry

     iteration #  8     ecut=    80.00 Ry     beta= 0.30
     Davidson diagonalization with overlap
     ethr =  1.37E-07,  avg # of iterations =  4.0

     total cpu time spent up to now is      704.3 secs

     total energy              =    -184.61836555 Ry
     estimated scf accuracy    <       0.00002488 Ry

     iteration #  9     ecut=    80.00 Ry     beta= 0.30
     Davidson diagonalization with overlap
     ethr =  6.22E-08,  avg # of iterations =  2.4

     total cpu time spent up to now is      731.0 secs

     total energy              =    -184.61837176 Ry
     estimated scf accuracy    <       0.00000540 Ry

     iteration # 10     ecut=    80.00 Ry     beta= 0.30
     Davidson diagonalization with overlap
     ethr =  1.35E-08,  avg # of iterations =  2.3

     total cpu time spent up to now is      757.3 secs

     total energy              =    -184.61837291 Ry
     estimated scf accuracy    <       0.00000148 Ry

     iteration # 11     ecut=    80.00 Ry     beta= 0.30
     Davidson diagonalization with overlap
     ethr =  3.70E-09,  avg # of iterations =  2.0

     total cpu time spent up to now is      782.0 secs

     total energy              =    -184.61837313 Ry
     estimated scf accuracy    <       0.00000003 Ry

     iteration # 12     ecut=    80.00 Ry     beta= 0.30
     Davidson diagonalization with overlap
     ethr =  6.97E-11,  avg # of iterations =  3.7

     total cpu time spent up to now is      815.0 secs

     total energy              =    -184.61837314 Ry
     estimated scf accuracy    <       0.00000005 Ry

     iteration # 13     ecut=    80.00 Ry     beta= 0.30
     Davidson diagonalization with overlap
     ethr =  6.97E-11,  avg # of iterations =  2.1

     total cpu time spent up to now is      840.8 secs

     total energy              =    -184.61837315 Ry
     estimated scf accuracy    <          5.0E-10 Ry

     iteration # 14     ecut=    80.00 Ry     beta= 0.30
     Davidson diagonalization with overlap
     ethr =  1.25E-12,  avg # of iterations =  4.3

     total cpu time spent up to now is      875.6 secs

     total energy              =    -184.61837315 Ry
     estimated scf accuracy    <          6.6E-10 Ry

     iteration # 15     ecut=    80.00 Ry     beta= 0.30
     Davidson diagonalization with overlap
     ethr =  1.25E-12,  avg # of iterations =  2.1

     total cpu time spent up to now is      901.1 secs

     End of self-consistent calculation

     Number of k-points >= 100: set verbosity='high' to print the bands.

     the Fermi energy is    14.8462 ev

!    total energy              =    -184.61837315 Ry
     estimated scf accuracy    <          3.3E-12 Ry
     smearing contrib. (-TS)   =       0.00001453 Ry
     internal energy E=F+TS    =    -184.61838767 Ry

     The total energy is F=E-TS. E is the sum of the following terms:
     one-electron contribution =      -3.96899843 Ry
     hartree contribution      =      25.50511827 Ry
     xc contribution           =     -51.90729054 Ry
     ewald contribution        =    -154.24721698 Ry

     convergence has been achieved in  15 iterations

     Forces acting on atoms (cartesian axes, Ry/au):

     atom    1 type  1   force =     0.00674681    0.20048913   -0.42670849
     atom    2 type  1   force =    -0.17700199    0.09440125    0.42670888
     atom    3 type  2   force =     0.00609035    0.01658252    0.00090055
     atom    4 type  2   force =    -0.01740607    0.00301690   -0.00090058
     atom    5 type  2   force =     0.00809123    0.00004757    0.06848679
     atom    6 type  2   force =    -0.00408684   -0.00698332   -0.06848679
     atom    7 type  2   force =    -0.02851327    0.02576610   -1.05216496
     atom    8 type  2   force =    -0.00805750    0.03757629    1.05216492
     atom    9 type  2   force =     0.00158379    0.01250486    0.01277964
     atom   10 type  2   force =    -0.01632444   -0.00229935    0.02636454
     atom   11 type  2   force =    -0.00365694    0.03363722    0.09157209
     atom   12 type  2   force =    -0.01162141    0.00488084   -0.01277965
     atom   13 type  2   force =     0.01015349    0.01298775   -0.02636455
     atom   14 type  2   force =    -0.02730227    0.01998561   -0.09157219
     atom   15 type  2   force =     0.00607164   -0.31762999    0.27694817
     atom   16 type  2   force =     0.25117920    0.16061394    0.28426433
     atom   17 type  2   force =    -0.00180919    0.00276646   -0.01962164
     atom   18 type  2   force =     0.27204010   -0.16407328   -0.27694843
     atom   19 type  2   force =    -0.26468540   -0.13722050   -0.28426433
     atom   20 type  2   force =    -0.00149129    0.00295001    0.01962170

     Total force =     1.840899     Total SCF correction =     0.000002


     Computing stress (Cartesian axis) and pressure

          total   stress  (Ry/bohr**3)                   (kbar)     P=     1952.71
   0.00919781   0.00036784   0.00109325         1353.05       54.11      160.82
   0.00036784   0.00877307   0.00063119           54.11     1290.56       92.85
   0.00109325   0.00063119   0.02185194          160.82       92.85     3214.53

     Energy error            =      1.1E+01
     Gradient error          =      1.1E+00
     Cell gradient error     =      8.2E-03


     number of scf cycles    =   2
     number of bfgs steps    =   1

     enthalpy old            =    -166.1738013592 Ry
     enthalpy new            =    -177.4965654421 Ry

     CASE: enthalpy_new < enthalpy_old

     new trust radius        =       0.8000000000 bohr
     new conv_thr            =            1.0E-10 Ry

     new unit-cell volume =    282.60851 a.u.^3 (    41.87826 Ang^3 )
     density =      7.76996 g/cm^3

CELL_PARAMETERS (alat=  6.77000000)
   0.810493494   0.009118518   0.026481521
  -0.397349879   0.688230133   0.000000012
   0.037467731   0.021632023   1.623895563

ATOMIC_POSITIONS (crystal)
Y             0.6835359776        0.3653416117        0.2293211944
Y             0.3164640033        0.6818056694        0.7706788439
H             0.0021463858        0.0026047061        0.2501106788
H            -0.0021463845        0.0004583258        0.7498893178
H             0.3344604697        0.6666758796        0.1565787767
H             0.6655395349        0.3322153266        0.8434212233
H             0.3312595518        0.6706688318        0.5678790191
H             0.6687404444        0.3394091844        0.4321209776
H             0.1576670344        0.3149344122        0.4416848226
H             0.6846451968        0.8431447090        0.4430070902
H             0.8454715122        0.6919808033        0.4491661297
H             0.8423329684        0.1572673803        0.5583151764
H             0.3153548032        0.1584995203        0.5569929085
H             0.1545284808        0.8465092912        0.5508338606
H             0.1322672422        0.2627891808        0.9674029229
H             0.7341499889        0.8689184573        0.9681417141
H             0.8434888707        0.6874875878        0.9384808028
H             0.8677327891        0.1305219250        0.0325970519
H             0.2658500121        0.1347684837        0.0318582861
H             0.1565111182        0.8439987137        0.0615192025



     Writing output data file ./out/yh9.save/
     NEW-OLD atomic charge density approx. for the potential

     negative rho (up, down):  1.737E-01 0.000E+00
     extrapolated charge   20.69065, renormalised to   40.00000

     total cpu time spent up to now is      916.5 secs

     Self-consistent Calculation

     iteration #  1     ecut=    80.00 Ry     beta= 0.30
     Davidson diagonalization with overlap
     c_bands:  1 eigenvalues not converged
     c_bands:  1 eigenvalues not converged
     c_bands:  1 eigenvalues not converged
     c_bands:  2 eigenvalues not converged
     c_bands:  1 eigenvalues not converged
     c_bands:  1 eigenvalues not converged
     c_bands:  1 eigenvalues not converged
     c_bands:  1 eigenvalues not converged
     c_bands:  1 eigenvalues not converged
     c_bands:  1 eigenvalues not converged
     c_bands:  1 eigenvalues not converged
     c_bands:  1 eigenvalues not converged
     c_bands:  1 eigenvalues not converged
     c_bands:  1 eigenvalues not converged
     c_bands:  1 eigenvalues not converged
     c_bands:  1 eigenvalues not converged
     c_bands:  1 eigenvalues not converged
     c_bands:  1 eigenvalues not converged
     c_bands:  1 eigenvalues not converged
     c_bands:  1 eigenvalues not converged
     c_bands:  1 eigenvalues not converged
     c_bands:  1 eigenvalues not converged
     c_bands:  1 eigenvalues not converged
     c_bands:  1 eigenvalues not converged
     c_bands:  1 eigenvalues not converged
     c_bands:  1 eigenvalues not converged
     c_bands:  1 eigenvalues not converged
     c_bands:  1 eigenvalues not converged
     c_bands:  1 eigenvalues not converged
     c_bands:  1 eigenvalues not converged
     c_bands:  1 eigenvalues not converged
     c_bands:  1 eigenvalues not converged
     c_bands:  1 eigenvalues not converged
     c_bands:  1 eigenvalues not converged
     c_bands:  1 eigenvalues not converged
     c_bands:  1 eigenvalues not converged
     c_bands:  1 eigenvalues not converged
     c_bands:  1 eigenvalues not converged
     c_bands:  1 eigenvalues not converged
     c_bands:  1 eigenvalues not converged
     c_bands:  1 eigenvalues not converged
     c_bands:  1 eigenvalues not converged
     c_bands:  1 eigenvalues not converged
     c_bands:  1 eigenvalues not converged
     c_bands:  1 eigenvalues not converged
     c_bands:  1 eigenvalues not converged
     c_bands:  1 eigenvalues not converged
     c_bands:  1 eigenvalues not converged
     c_bands:  1 eigenvalues not converged
     c_bands:  1 eigenvalues not converged
     c_bands:  1 eigenvalues not converged
     c_bands:  1 eigenvalues not converged
     c_bands:  1 eigenvalues not converged
     c_bands:  1 eigenvalues not converged
     c_bands:  1 eigenvalues not converged
     c_bands:  1 eigenvalues not converged
     c_bands:  1 eigenvalues not converged
     c_bands:  1 eigenvalues not converged
     c_bands:  1 eigenvalues not converged
     c_bands:  1 eigenvalues not converged
     c_bands:  1 eigenvalues not converged
     c_bands:  1 eigenvalues not converged
     c_bands:  1 eigenvalues not converged
     c_bands:  1 eigenvalues not converged
     c_bands:  1 eigenvalues not converged
     c_bands:  1 eigenvalues not converged
     c_bands:  1 eigenvalues not converged
     c_bands:  1 eigenvalues not converged
     c_bands:  1 eigenvalues not converged
     c_bands:  1 eigenvalues not converged
     c_bands:  1 eigenvalues not converged
     c_bands:  1 eigenvalues not converged
     c_bands:  1 eigenvalues not converged
     c_bands:  1 eigenvalues not converged
     c_bands:  1 eigenvalues not converged
     c_bands:  1 eigenvalues not converged
     c_bands:  2 eigenvalues not converged
     c_bands:  1 eigenvalues not converged
     c_bands:  1 eigenvalues not converged
     c_bands:  1 eigenvalues not converged
     c_bands:  1 eigenvalues not converged
     c_bands:  1 eigenvalues not converged
     c_bands:  1 eigenvalues not converged
     c_bands:  1 eigenvalues not converged
     c_bands:  1 eigenvalues not converged
     c_bands:  1 eigenvalues not converged
     c_bands:  2 eigenvalues not converged
     c_bands:  1 eigenvalues not converged
     c_bands:  1 eigenvalues not converged
     c_bands:  1 eigenvalues not converged
     c_bands:  1 eigenvalues not converged
     c_bands:  1 eigenvalues not converged
     c_bands:  1 eigenvalues not converged
     c_bands:  1 eigenvalues not converged
     c_bands:  1 eigenvalues not converged
     c_bands:  1 eigenvalues not converged
     c_bands:  1 eigenvalues not converged
     c_bands:  1 eigenvalues not converged
     c_bands:  1 eigenvalues not converged
     c_bands:  1 eigenvalues not converged
     c_bands:  1 eigenvalues not converged
     c_bands:  2 eigenvalues not converged
     c_bands:  1 eigenvalues not converged
     c_bands:  1 eigenvalues not converged
     c_bands:  1 eigenvalues not converged
     c_bands:  1 eigenvalues not converged
     c_bands:  1 eigenvalues not converged
     c_bands:  1 eigenvalues not converged
     c_bands:  1 eigenvalues not converged
     c_bands:  2 eigenvalues not converged
     c_bands:  1 eigenvalues not converged
     c_bands:  1 eigenvalues not converged
     c_bands:  1 eigenvalues not converged
     c_bands:  1 eigenvalues not converged
     c_bands:  1 eigenvalues not converged
     c_bands:  1 eigenvalues not converged
     c_bands:  1 eigenvalues not converged
     c_bands:  1 eigenvalues not converged
     c_bands:  1 eigenvalues not converged
     c_bands:  1 eigenvalues not converged
     c_bands:  1 eigenvalues not converged
     c_bands:  1 eigenvalues not converged
     c_bands:  1 eigenvalues not converged
     c_bands:  1 eigenvalues not converged
     c_bands:  1 eigenvalues not converged
     c_bands:  1 eigenvalues not converged
     c_bands:  1 eigenvalues not converged
     c_bands:  1 eigenvalues not converged
     c_bands:  2 eigenvalues not converged
     c_bands:  1 eigenvalues not converged
     c_bands:  1 eigenvalues not converged
     c_bands:  1 eigenvalues not converged
     c_bands:  1 eigenvalues not converged
     c_bands:  1 eigenvalues not converged
     c_bands:  1 eigenvalues not converged
     c_bands:  1 eigenvalues not converged
     c_bands:  1 eigenvalues not converged
     c_bands:  1 eigenvalues not converged
     c_bands:  1 eigenvalues not converged
     c_bands:  1 eigenvalues not converged
     c_bands:  1 eigenvalues not converged
     c_bands:  1 eigenvalues not converged
     c_bands:  1 eigenvalues not converged
     c_bands:  2 eigenvalues not converged
     c_bands:  1 eigenvalues not converged
     c_bands:  1 eigenvalues not converged
     c_bands:  1 eigenvalues not converged
     c_bands:  1 eigenvalues not converged
     c_bands:  1 eigenvalues not converged
     c_bands:  1 eigenvalues not converged
     c_bands:  1 eigenvalues not converged
     c_bands:  1 eigenvalues not converged
     c_bands:  1 eigenvalues not converged
     c_bands:  1 eigenvalues not converged
     c_bands:  1 eigenvalues not converged
     c_bands:  1 eigenvalues not converged
     c_bands:  1 eigenvalues not converged
     c_bands:  1 eigenvalues not converged
     c_bands:  1 eigenvalues not converged
     c_bands:  1 eigenvalues not converged
     c_bands:  1 eigenvalues not converged
     c_bands:  1 eigenvalues not converged
     c_bands:  1 eigenvalues not converged
     c_bands:  1 eigenvalues not converged
     c_bands:  1 eigenvalues not converged
     c_bands:  1 eigenvalues not converged
     c_bands:  1 eigenvalues not converged
     c_bands:  1 eigenvalues not converged
     c_bands:  1 eigenvalues not converged
     c_bands:  1 eigenvalues not converged
     c_bands:  1 eigenvalues not converged
     c_bands:  1 eigenvalues not converged
     c_bands:  1 eigenvalues not converged
     c_bands:  1 eigenvalues not converged
     c_bands:  1 eigenvalues not converged
     c_bands:  1 eigenvalues not converged
     c_bands:  1 eigenvalues not converged
     c_bands:  1 eigenvalues not converged
     c_bands:  1 eigenvalues not converged
     c_bands:  1 eigenvalues not converged
     c_bands:  1 eigenvalues not converged
     c_bands:  1 eigenvalues not converged
     ethr =  1.00E-06,  avg # of iterations = 18.8

     negative rho (up, down):  1.330E-02 0.000E+00

     total cpu time spent up to now is     1052.5 secs

     total energy              =    -165.82269993 Ry
     estimated scf accuracy    <      54.92737534 Ry

     iteration #  2     ecut=    80.00 Ry     beta= 0.30
     Davidson diagonalization with overlap
     ethr =  1.00E-02,  avg # of iterations =  5.4

     negative rho (up, down):  1.522E-03 0.000E+00

     total cpu time spent up to now is     1100.3 secs

     total energy              =    -180.50615163 Ry
     estimated scf accuracy    <      20.52433455 Ry

     iteration #  3     ecut=    80.00 Ry     beta= 0.30
     Davidson diagonalization with overlap
     ethr =  1.00E-02,  avg # of iterations =  3.0

     total cpu time spent up to now is     1130.2 secs

     total energy              =    -183.12177979 Ry
     estimated scf accuracy    <       1.59190916 Ry

     iteration #  4     ecut=    80.00 Ry     beta= 0.30
     Davidson diagonalization with overlap
     ethr =  3.98E-03,  avg # of iterations =  1.3

     total cpu time spent up to now is     1151.4 secs

     total energy              =    -182.99189540 Ry
     estimated scf accuracy    <       0.42842536 Ry

     iteration #  5     ecut=    80.00 Ry     beta= 0.30
     Davidson diagonalization with overlap
     ethr =  1.07E-03,  avg # of iterations =  2.5

     total cpu time spent up to now is     1181.7 secs

     total energy              =    -183.05167966 Ry
     estimated scf accuracy    <       0.06675788 Ry

     iteration #  6     ecut=    80.00 Ry     beta= 0.30
     Davidson diagonalization with overlap
     ethr =  1.67E-04,  avg # of iterations =  4.1

     total cpu time spent up to now is     1212.3 secs

     total energy              =    -183.06297142 Ry
     estimated scf accuracy    <       0.04346574 Ry

     iteration #  7     ecut=    80.00 Ry     beta= 0.30
     Davidson diagonalization with overlap
     ethr =  1.09E-04,  avg # of iterations =  2.0

     total cpu time spent up to now is     1237.6 secs

     total energy              =    -183.07010668 Ry
     estimated scf accuracy    <       0.00084664 Ry

     iteration #  8     ecut=    80.00 Ry     beta= 0.30
     Davidson diagonalization with overlap
     ethr =  2.12E-06,  avg # of iterations =  5.6

     total cpu time spent up to now is     1266.4 secs

     total energy              =    -183.07011941 Ry
     estimated scf accuracy    <       0.00021310 Ry

     iteration #  9     ecut=    80.00 Ry     beta= 0.30
     Davidson diagonalization with overlap
     ethr =  5.33E-07,  avg # of iterations =  2.1

     total cpu time spent up to now is     1292.8 secs

     total energy              =    -183.07016214 Ry
     estimated scf accuracy    <       0.00004658 Ry

     iteration # 10     ecut=    80.00 Ry     beta= 0.30
     Davidson diagonalization with overlap
     ethr =  1.16E-07,  avg # of iterations =  2.1

     total cpu time spent up to now is     1319.0 secs

     total energy              =    -183.07017234 Ry
     estimated scf accuracy    <       0.00001455 Ry

     iteration # 11     ecut=    80.00 Ry     beta= 0.30
     Davidson diagonalization with overlap
     ethr =  3.64E-08,  avg # of iterations =  2.0

     total cpu time spent up to now is     1343.7 secs

     total energy              =    -183.07017462 Ry
     estimated scf accuracy    <       0.00000007 Ry

     iteration # 12     ecut=    80.00 Ry     beta= 0.30
     Davidson diagonalization with overlap
     ethr =  1.82E-10,  avg # of iterations =  3.3

     total cpu time spent up to now is     1375.1 secs

     total energy              =    -183.07017468 Ry
     estimated scf accuracy    <       0.00000005 Ry

     iteration # 13     ecut=    80.00 Ry     beta= 0.30
     Davidson diagonalization with overlap
     ethr =  1.26E-10,  avg # of iterations =  1.2

     total cpu time spent up to now is     1396.1 secs

     total energy              =    -183.07017469 Ry
     estimated scf accuracy    <       0.00000002 Ry

     iteration # 14     ecut=    80.00 Ry     beta= 0.30
     Davidson diagonalization with overlap
     ethr =  4.44E-11,  avg # of iterations =  2.2

     total cpu time spent up to now is     1422.6 secs

     total energy              =    -183.07017470 Ry
     estimated scf accuracy    <          4.0E-09 Ry

     iteration # 15     ecut=    80.00 Ry     beta= 0.30
     Davidson diagonalization with overlap
     ethr =  1.00E-11,  avg # of iterations =  2.0

     total cpu time spent up to now is     1449.3 secs

     End of self-consistent calculation

     Number of k-points >= 100: set verbosity='high' to print the bands.

     the Fermi energy is    23.1247 ev

!    total energy              =    -183.07017471 Ry
     estimated scf accuracy    <          8.4E-11 Ry
     smearing contrib. (-TS)   =       0.00000775 Ry
     internal energy E=F+TS    =    -183.07018246 Ry

     The total energy is F=E-TS. E is the sum of the following terms:
     one-electron contribution =      41.64125463 Ry
     hartree contribution      =      14.17625335 Ry
     xc contribution           =     -54.39357566 Ry
     ewald contribution        =    -184.49411478 Ry

     convergence has been achieved in  15 iterations

     Forces acting on atoms (cartesian axes, Ry/au):

     atom    1 type  1   force =    -0.10793040   -0.16670247   -0.59472126
     atom    2 type  1   force =     0.19833391    0.01011917    0.59471991
     atom    3 type  2   force =     0.01887476    0.06937747    0.03381848
     atom    4 type  2   force =    -0.06952006    0.01834270   -0.03381856
     atom    5 type  2   force =     0.02575913    0.02384443    0.01306938
     atom    6 type  2   force =    -0.03352957   -0.01038559   -0.01306930
     atom    7 type  2   force =     0.02914052   -0.04228776   -0.74646908
     atom    8 type  2   force =     0.02205206   -0.04638032    0.74646983
     atom    9 type  2   force =    -0.00145710    0.04439814   -0.04440727
     atom   10 type  2   force =    -0.09934159    0.03693009    0.00919044
     atom   11 type  2   force =     0.08731015    0.05382032    0.15051264
     atom   12 type  2   force =    -0.03772135    0.02346096    0.04440724
     atom   13 type  2   force =     0.01768833    0.10449750   -0.00919041
     atom   14 type  2   force =    -0.09026478   -0.04870275   -0.15051257
     atom   15 type  2   force =     0.02619976    0.10882876   -0.04132241
     atom   16 type  2   force =    -0.12433483   -0.05485125    0.04456282
     atom   17 type  2   force =     0.04720645   -0.13026927   -0.01058858
     atom   18 type  2   force =    -0.10734853    0.03172494    0.04132274
     atom   19 type  2   force =     0.10966993    0.08025159   -0.04456272
     atom   20 type  2   force =     0.08921320   -0.10601665    0.01058868

     Total force =     1.458177     Total SCF correction =     0.000055


     Computing stress (Cartesian axis) and pressure

          total   stress  (Ry/bohr**3)                   (kbar)     P=     4956.08
   0.03052821  -0.00064968   0.00029018         4490.85      -95.57       42.69
  -0.00064968   0.03127840   0.00016754          -95.57     4601.21       24.65
   0.00029018   0.00016754   0.03926569           42.69       24.65     5776.18

     Energy error            =      7.7E-01
     Gradient error          =      7.5E-01
     Cell gradient error     =      2.2E-02


     number of scf cycles    =   3
     number of bfgs steps    =   2

     enthalpy old            =    -177.4965654421 Ry
     enthalpy new            =    -178.2673407034 Ry

     CASE: enthalpy_new < enthalpy_old

     new trust radius        =       0.5501335836 bohr
     new conv_thr            =            1.0E-10 Ry

     new unit-cell volume =    404.24723 a.u.^3 (    59.90326 Ang^3 )
     density =      5.43196 g/cm^3

CELL_PARAMETERS (alat=  6.77000000)
   0.895172369   0.003812794   0.036921829
  -0.444284208   0.769522813   0.000000023
   0.054280242   0.031338747   1.889605495

ATOMIC_POSITIONS (crystal)
Y             0.6762842342        0.3688451520        0.2557500608
Y             0.3237157399        0.6925609125        0.7442499101
H             0.0077675429        0.0098148058        0.2525659180
H            -0.0077675438        0.0020472700        0.7474340714
H             0.3380419653        0.6687050280        0.1610532504
H             0.6619580442        0.3306630096        0.8389467548
H             0.3280071973        0.6681855398        0.5507312444
H             0.6719928025        0.3401782518        0.4492687997
H             0.1597904829        0.3194533455        0.4396195305
H             0.6778566466        0.8459803355        0.4450200931
H             0.8550114633        0.6982145746        0.4633203017
H             0.8402095224        0.1596628671        0.5603804657
H             0.3221433531        0.1681237106        0.5549799064
H             0.1449885262        0.8432031015        0.5366796882
H             0.1256290221        0.2447788579        0.9792319166
H             0.7482538480        0.8779942747        0.9855778605
H             0.8414597723        0.6770792256        0.9366979729
H             0.8743710233        0.1191498344        0.0207680669
H             0.2517461527        0.1297404570        0.0144221461
H             0.1585402046        0.8356194460        0.0633020418



     Writing output data file ./out/yh9.save/
     NEW-OLD atomic charge density approx. for the potential
     extrapolated charge   52.03356, renormalised to   40.00000

     total cpu time spent up to now is     1464.7 secs

     Self-consistent Calculation

     iteration #  1     ecut=    80.00 Ry     beta= 0.30
     Davidson diagonalization with overlap
     c_bands:  1 eigenvalues not converged
     c_bands:  1 eigenvalues not converged
     c_bands:  1 eigenvalues not converged
     c_bands:  1 eigenvalues not converged
     c_bands:  1 eigenvalues not converged
     c_bands:  1 eigenvalues not converged
     c_bands:  1 eigenvalues not converged
     c_bands:  1 eigenvalues not converged
     c_bands:  1 eigenvalues not converged
     c_bands:  1 eigenvalues not converged
     c_bands:  1 eigenvalues not converged
     c_bands:  1 eigenvalues not converged
     c_bands:  1 eigenvalues not converged
     c_bands:  1 eigenvalues not converged
     c_bands:  1 eigenvalues not converged
     c_bands:  1 eigenvalues not converged
     ethr =  1.00E-06,  avg # of iterations = 14.7

     total cpu time spent up to now is     1566.6 secs

     total energy              =    -182.51933706 Ry
     estimated scf accuracy    <       5.90055244 Ry

     iteration #  2     ecut=    80.00 Ry     beta= 0.30
     Davidson diagonalization with overlap
     ethr =  1.00E-02,  avg # of iterations =  3.2

     total cpu time spent up to now is     1601.7 secs

     total energy              =    -185.44668157 Ry
     estimated scf accuracy    <       2.87454863 Ry

     iteration #  3     ecut=    80.00 Ry     beta= 0.30
     Davidson diagonalization with overlap
     ethr =  7.19E-03,  avg # of iterations =  2.0

     total cpu time spent up to now is     1625.0 secs

     total energy              =    -185.76582212 Ry
     estimated scf accuracy    <       0.47727481 Ry

     iteration #  4     ecut=    80.00 Ry     beta= 0.30
     Davidson diagonalization with overlap
     ethr =  1.19E-03,  avg # of iterations =  1.6

     total cpu time spent up to now is     1646.5 secs

     total energy              =    -185.38354966 Ry
     estimated scf accuracy    <       0.57809513 Ry

     iteration #  5     ecut=    80.00 Ry     beta= 0.30
     Davidson diagonalization with overlap
     ethr =  1.19E-03,  avg # of iterations =  2.8

     total cpu time spent up to now is     1679.4 secs

     total energy              =    -185.55862156 Ry
     estimated scf accuracy    <       0.45628187 Ry

     iteration #  6     ecut=    80.00 Ry     beta= 0.30
     Davidson diagonalization with overlap
     ethr =  1.14E-03,  avg # of iterations =  1.0

     total cpu time spent up to now is     1700.4 secs

     total energy              =    -185.53945023 Ry
     estimated scf accuracy    <       0.12469016 Ry

     iteration #  7     ecut=    80.00 Ry     beta= 0.30
     Davidson diagonalization with overlap
     ethr =  3.12E-04,  avg # of iterations =  2.3

     total cpu time spent up to now is     1725.3 secs

     total energy              =    -185.54965497 Ry
     estimated scf accuracy    <       0.00660102 Ry

     iteration #  8     ecut=    80.00 Ry     beta= 0.30
     Davidson diagonalization with overlap
     ethr =  1.65E-05,  avg # of iterations =  6.1

     total cpu time spent up to now is     1761.5 secs

     total energy              =    -185.55156979 Ry
     estimated scf accuracy    <       0.00648839 Ry

     iteration #  9     ecut=    80.00 Ry     beta= 0.30
     Davidson diagonalization with overlap
     ethr =  1.62E-05,  avg # of iterations =  2.0

     total cpu time spent up to now is     1786.4 secs

     total energy              =    -185.55252009 Ry
     estimated scf accuracy    <       0.00002134 Ry

     iteration # 10     ecut=    80.00 Ry     beta= 0.30
     Davidson diagonalization with overlap
     ethr =  5.33E-08,  avg # of iterations =  5.0

     total cpu time spent up to now is     1824.8 secs

     total energy              =    -185.55253407 Ry
     estimated scf accuracy    <       0.00003648 Ry

     iteration # 11     ecut=    80.00 Ry     beta= 0.30
     Davidson diagonalization with overlap
     ethr =  5.33E-08,  avg # of iterations =  2.1

     total cpu time spent up to now is     1853.2 secs

     total energy              =    -185.55253923 Ry
     estimated scf accuracy    <       0.00000093 Ry

     iteration # 12     ecut=    80.00 Ry     beta= 0.30
     Davidson diagonalization with overlap
     ethr =  2.34E-09,  avg # of iterations =  3.3

     total cpu time spent up to now is     1885.8 secs

     total energy              =    -185.55253957 Ry
     estimated scf accuracy    <       0.00000038 Ry

     iteration # 13     ecut=    80.00 Ry     beta= 0.30
     Davidson diagonalization with overlap
     ethr =  9.48E-10,  avg # of iterations =  2.0

     total cpu time spent up to now is     1909.5 secs

     total energy              =    -185.55253957 Ry
     estimated scf accuracy    <       0.00000016 Ry

     iteration # 14     ecut=    80.00 Ry     beta= 0.30
     Davidson diagonalization with overlap
     ethr =  4.00E-10,  avg # of iterations =  2.0

     total cpu time spent up to now is     1933.5 secs

     total energy              =    -185.55253959 Ry
     estimated scf accuracy    <          3.4E-09 Ry

     iteration # 15     ecut=    80.00 Ry     beta= 0.30
     Davidson diagonalization with overlap
     ethr =  8.46E-12,  avg # of iterations =  3.6

     total cpu time spent up to now is     1965.0 secs

     total energy              =    -185.55253959 Ry
     estimated scf accuracy    <          3.7E-09 Ry

     iteration # 16     ecut=    80.00 Ry     beta= 0.30
     Davidson diagonalization with overlap
     ethr =  8.46E-12,  avg # of iterations =  2.0

     total cpu time spent up to now is     1988.7 secs

     total energy              =    -185.55253959 Ry
     estimated scf accuracy    <          4.3E-10 Ry

     iteration # 17     ecut=    80.00 Ry     beta= 0.30
     Davidson diagonalization with overlap
     ethr =  1.06E-12,  avg # of iterations =  2.3

     total cpu time spent up to now is     2015.8 secs

     End of self-consistent calculation

     Number of k-points >= 100: set verbosity='high' to print the bands.

     the Fermi energy is    15.4023 ev

!    total energy              =    -185.55253959 Ry
     estimated scf accuracy    <          5.3E-12 Ry
     smearing contrib. (-TS)   =      -0.00001944 Ry
     internal energy E=F+TS    =    -185.55252015 Ry

     The total energy is F=E-TS. E is the sum of the following terms:
     one-electron contribution =      11.21665573 Ry
     hartree contribution      =      19.09747415 Ry
     xc contribution           =     -51.94842365 Ry
     ewald contribution        =    -163.91822638 Ry

     convergence has been achieved in  17 iterations

     Forces acting on atoms (cartesian axes, Ry/au):

     atom    1 type  1   force =    -0.04824900   -0.11405388   -0.58338890
     atom    2 type  1   force =     0.12289810   -0.01524202    0.58339011
     atom    3 type  2   force =    -0.00599823    0.03553427   -0.00903062
     atom    4 type  2   force =    -0.02777449    0.02296173    0.00903063
     atom    5 type  2   force =     0.00833899    0.00883752    0.02778746
     atom    6 type  2   force =    -0.01182305   -0.00280301   -0.02778748
     atom    7 type  2   force =    -0.01212392   -0.01476195   -0.50587447
     atom    8 type  2   force =     0.01884617    0.00311870    0.50587350
     atom    9 type  2   force =    -0.00313295    0.01460054   -0.02696099
     atom   10 type  2   force =    -0.02365999    0.00962719    0.01683148
     atom   11 type  2   force =     0.01073250    0.00152279    0.05122739
     atom   12 type  2   force =    -0.01107792    0.01001348    0.02696095
     atom   13 type  2   force =     0.00349254    0.02530377   -0.01683151
     atom   14 type  2   force =    -0.00668508   -0.00853322   -0.05122747
     atom   15 type  2   force =     0.01641914    0.22928708   -0.10429179
     atom   16 type  2   force =    -0.10402004   -0.20350017   -0.02630664
     atom   17 type  2   force =     0.00629321   -0.05681384    0.00184345
     atom   18 type  2   force =    -0.20677802    0.10042410    0.10429172
     atom   19 type  2   force =     0.22824637   -0.01166616    0.02630669
     atom   20 type  2   force =     0.04605569   -0.03385693   -0.00184350

     Total force =     1.215561     Total SCF correction =     0.000007


     Computing stress (Cartesian axis) and pressure

          total   stress  (Ry/bohr**3)                   (kbar)     P=     1869.64
   0.01137082   0.00015351  -0.00005346         1672.71       22.58       -7.86
   0.00015351   0.01119356  -0.00003087           22.58     1646.63       -4.54
  -0.00005346  -0.00003087   0.01556426           -7.86       -4.54     2289.58

     Energy error            =      4.2E-01
     Gradient error          =      5.8E-01
     Cell gradient error     =      5.8E-03


     number of scf cycles    =   4
     number of bfgs steps    =   3

     enthalpy old            =    -178.2673407034 Ry
     enthalpy new            =    -178.6824975948 Ry

     CASE: enthalpy_new < enthalpy_old

     new trust radius        =       0.2084184941 bohr
     new conv_thr            =            1.0E-10 Ry

     new unit-cell volume =    363.83622 a.u.^3 (    53.91497 Ang^3 )
     density =      6.03529 g/cm^3

CELL_PARAMETERS (alat=  6.77000000)
   0.856525104   0.003756988   0.033624240
  -0.425008905   0.736137025   0.000000017
   0.054237705   0.031314184   1.857826710

ATOMIC_POSITIONS (crystal)
Y             0.6566828324        0.3494330827        0.2500324933
Y             0.3433171566        0.6927502595        0.7499675547
H             0.0104037135        0.0153038726        0.2526026534
H            -0.0104037197        0.0049001620        0.7473973356
H             0.3403460627        0.6703742463        0.1634422252
H             0.6596539438        0.3300281366        0.8365577789
H             0.3228565392        0.6636078868        0.5517120563
H             0.6771434593        0.3407512628        0.4482879176
H             0.1605020812        0.3218944750        0.4363466939
H             0.6746891938        0.8480489355        0.4465677773
H             0.8586662620        0.6988409619        0.4701526321
H             0.8394979285        0.1613923986        0.5636532985
H             0.3253108015        0.1733597688        0.5534322198
H             0.1413337229        0.8401746865        0.5298473525
H             0.1424166439        0.2747942171        0.9679767216
H             0.7211790195        0.8531523894        0.9818825923
H             0.8383683595        0.6676053257        0.9366539196
H             0.8575833942        0.1323775739        0.0320232648
H             0.2788209802        0.1319733930        0.0181174200
H             0.1616316250        0.8292369654        0.0633460925



     Writing output data file ./out/yh9.save/
     NEW-OLD atomic charge density approx. for the potential
     extrapolated charge   35.55816, renormalised to   40.00000

     total cpu time spent up to now is     2031.1 secs

     Self-consistent Calculation

     iteration #  1     ecut=    80.00 Ry     beta= 0.30
     Davidson diagonalization with overlap
     c_bands:  1 eigenvalues not converged
     c_bands:  1 eigenvalues not converged
     c_bands:  1 eigenvalues not converged
     c_bands:  1 eigenvalues not converged
     c_bands:  1 eigenvalues not converged
     c_bands:  1 eigenvalues not converged
     c_bands:  1 eigenvalues not converged
     c_bands:  1 eigenvalues not converged
     c_bands:  1 eigenvalues not converged
     c_bands:  1 eigenvalues not converged
     c_bands:  1 eigenvalues not converged
     c_bands:  1 eigenvalues not converged
     c_bands:  1 eigenvalues not converged
     c_bands:  1 eigenvalues not converged
     c_bands:  1 eigenvalues not converged
     c_bands:  1 eigenvalues not converged
     c_bands:  1 eigenvalues not converged
     c_bands:  1 eigenvalues not converged
     c_bands:  1 eigenvalues not converged
     c_bands:  1 eigenvalues not converged
     c_bands:  1 eigenvalues not converged
     c_bands:  1 eigenvalues not converged
     c_bands:  1 eigenvalues not converged
     c_bands:  1 eigenvalues not converged
     c_bands:  1 eigenvalues not converged
     c_bands:  1 eigenvalues not converged
     c_bands:  1 eigenvalues not converged
     c_bands:  1 eigenvalues not converged
     c_bands:  1 eigenvalues not converged
     c_bands:  1 eigenvalues not converged
     c_bands:  1 eigenvalues not converged
     c_bands:  1 eigenvalues not converged
     c_bands:  1 eigenvalues not converged
     c_bands:  1 eigenvalues not converged
     c_bands:  1 eigenvalues not converged
     c_bands:  1 eigenvalues not converged
     c_bands:  1 eigenvalues not converged
     c_bands:  1 eigenvalues not converged
     c_bands:  1 eigenvalues not converged
     ethr =  1.00E-06,  avg # of iterations = 14.3

     total cpu time spent up to now is     2127.9 secs

     total energy              =    -184.82032189 Ry
     estimated scf accuracy    <       0.48826762 Ry

     iteration #  2     ecut=    80.00 Ry     beta= 0.30
     Davidson diagonalization with overlap
     ethr =  1.22E-03,  avg # of iterations =  3.1

     total cpu time spent up to now is     2163.2 secs

     total energy              =    -185.21479929 Ry
     estimated scf accuracy    <       0.30007158 Ry

     iteration #  3     ecut=    80.00 Ry     beta= 0.30
     Davidson diagonalization with overlap
     ethr =  7.50E-04,  avg # of iterations =  2.0

     total cpu time spent up to now is     2186.9 secs

     total energy              =    -185.23253453 Ry
     estimated scf accuracy    <       0.04908820 Ry

     iteration #  4     ecut=    80.00 Ry     beta= 0.30
     Davidson diagonalization with overlap
     ethr =  1.23E-04,  avg # of iterations =  2.3

     total cpu time spent up to now is     2209.5 secs

     total energy              =    -185.21837799 Ry
     estimated scf accuracy    <       0.02611009 Ry

     iteration #  5     ecut=    80.00 Ry     beta= 0.30
     Davidson diagonalization with overlap
     ethr =  6.53E-05,  avg # of iterations =  2.3

     total cpu time spent up to now is     2240.3 secs

     total energy              =    -185.22575940 Ry
     estimated scf accuracy    <       0.00449543 Ry

     iteration #  6     ecut=    80.00 Ry     beta= 0.30
     Davidson diagonalization with overlap
     ethr =  1.12E-05,  avg # of iterations =  4.0

     total cpu time spent up to now is     2268.2 secs

     total energy              =    -185.22543521 Ry
     estimated scf accuracy    <       0.00271882 Ry

     iteration #  7     ecut=    80.00 Ry     beta= 0.30
     Davidson diagonalization with overlap
     ethr =  6.80E-06,  avg # of iterations =  2.2

     total cpu time spent up to now is     2293.6 secs

     total energy              =    -185.22583794 Ry
     estimated scf accuracy    <       0.00004151 Ry

     iteration #  8     ecut=    80.00 Ry     beta= 0.30
     Davidson diagonalization with overlap
     ethr =  1.04E-07,  avg # of iterations =  3.6

     total cpu time spent up to now is     2325.3 secs

     total energy              =    -185.22585293 Ry
     estimated scf accuracy    <       0.00000869 Ry

     iteration #  9     ecut=    80.00 Ry     beta= 0.30
     Davidson diagonalization with overlap
     ethr =  2.17E-08,  avg # of iterations =  2.3

     total cpu time spent up to now is     2353.2 secs

     total energy              =    -185.22585433 Ry
     estimated scf accuracy    <       0.00000226 Ry

     iteration # 10     ecut=    80.00 Ry     beta= 0.30
     Davidson diagonalization with overlap
     ethr =  5.65E-09,  avg # of iterations =  2.0

     total cpu time spent up to now is     2381.2 secs

     total energy              =    -185.22585484 Ry
     estimated scf accuracy    <       0.00000005 Ry

     iteration # 11     ecut=    80.00 Ry     beta= 0.30
     Davidson diagonalization with overlap
     ethr =  1.15E-10,  avg # of iterations =  2.7

     total cpu time spent up to now is     2408.4 secs

     total energy              =    -185.22585485 Ry
     estimated scf accuracy    <       0.00000002 Ry

     iteration # 12     ecut=    80.00 Ry     beta= 0.30
     Davidson diagonalization with overlap
     ethr =  4.80E-11,  avg # of iterations =  2.2

     total cpu time spent up to now is     2438.0 secs

     total energy              =    -185.22585486 Ry
     estimated scf accuracy    <          4.5E-09 Ry

     iteration # 13     ecut=    80.00 Ry     beta= 0.30
     Davidson diagonalization with overlap
     ethr =  1.14E-11,  avg # of iterations =  2.0

     total cpu time spent up to now is     2464.7 secs

     total energy              =    -185.22585486 Ry
     estimated scf accuracy    <          1.2E-10 Ry

     iteration # 14     ecut=    80.00 Ry     beta= 0.30
     Davidson diagonalization with overlap
     ethr =  3.09E-13,  avg # of iterations =  3.2

     total cpu time spent up to now is     2494.9 secs

     total energy              =    -185.22585486 Ry
     estimated scf accuracy    <          1.1E-10 Ry

     iteration # 15     ecut=    80.00 Ry     beta= 0.30
     Davidson diagonalization with overlap
     ethr =  2.66E-13,  avg # of iterations =  2.3

     total cpu time spent up to now is     2524.0 secs

     End of self-consistent calculation

     Number of k-points >= 100: set verbosity='high' to print the bands.

     the Fermi energy is    17.2236 ev

!    total energy              =    -185.22585486 Ry
     estimated scf accuracy    <          2.5E-11 Ry
     smearing contrib. (-TS)   =       0.00002935 Ry
     internal energy E=F+TS    =    -185.22588421 Ry

     The total energy is F=E-TS. E is the sum of the following terms:
     one-electron contribution =      21.66533969 Ry
     hartree contribution      =      16.75845400 Ry
     xc contribution           =     -52.46540067 Ry
     ewald contribution        =    -171.18427724 Ry

     convergence has been achieved in  15 iterations

     Forces acting on atoms (cartesian axes, Ry/au):

     atom    1 type  1   force =    -0.03078260   -0.05588105   -0.45992370
     atom    2 type  1   force =     0.06378564   -0.00128210    0.45992238
     atom    3 type  2   force =    -0.03252864    0.00532564   -0.00638020
     atom    4 type  2   force =     0.01165219    0.03083347    0.00638015
     atom    5 type  2   force =    -0.00727092    0.00321853    0.01770284
     atom    6 type  2   force =     0.00084810    0.00790614   -0.01770283
     atom    7 type  2   force =    -0.03203336   -0.03561941   -0.44861612
     atom    8 type  2   force =     0.04686412    0.00993199    0.44861707
     atom    9 type  2   force =    -0.00991405    0.01276536   -0.03717378
     atom   10 type  2   force =    -0.02645586    0.01541333    0.00522495
     atom   11 type  2   force =    -0.00795846   -0.02344717    0.00908546
     atom   12 type  2   force =    -0.00609815    0.01496850    0.03717384
     atom   13 type  2   force =    -0.00012043    0.03061818   -0.00522490
     atom   14 type  2   force =     0.02428512   -0.00483139   -0.00908534
     atom   15 type  2   force =    -0.00165331    0.08386075   -0.01840699
     atom   16 type  2   force =    -0.05842128   -0.07313221    0.02562101
     atom   17 type  2   force =     0.00581501   -0.04866872    0.00338627
     atom   18 type  2   force =    -0.07179900    0.04336225    0.01840708
     atom   19 type  2   force =     0.09254502    0.01402820   -0.02562096
     atom   20 type  2   force =     0.03924086   -0.02937031   -0.00338623

     Total force =     0.941450     Total SCF correction =     0.000008


     Computing stress (Cartesian axis) and pressure

          total   stress  (Ry/bohr**3)                   (kbar)     P=     2407.68
   0.01524154   0.00038511   0.00028215         2242.11       56.65       41.51
   0.00038511   0.01479686   0.00016290           56.65     2176.69       23.96
   0.00028215   0.00016290   0.01906290           41.51       23.96     2804.25

     Energy error            =      3.6E-01
     Gradient error          =      4.6E-01
     Cell gradient error     =      2.2E-03


     number of scf cycles    =   5
     number of bfgs steps    =   4

     enthalpy old            =    -178.6824975948 Ry
     enthalpy new            =    -179.0425839377 Ry

     CASE: enthalpy_new < enthalpy_old

     new trust radius        =       0.2040761225 bohr
     new conv_thr            =            1.0E-10 Ry

     new unit-cell volume =    337.82001 a.u.^3 (    50.05976 Ang^3 )
     density =      6.50008 g/cm^3

CELL_PARAMETERS (alat=  6.77000000)
   0.830505680   0.018318420   0.042557976
  -0.399388624   0.691761379   0.000000006
   0.069591444   0.040178663   1.875914828

ATOMIC_POSITIONS (crystal)
Y             0.6333194344        0.3309575763        0.2500074642
Y             0.3666805168        0.6976381249        0.7499923042
H             0.0062237229        0.0191135349        0.2520431449
H            -0.0062237268        0.0128898204        0.7479568314
H             0.3407525939        0.6720461761        0.1679316379
H             0.6592474163        0.3312935609        0.8320683702
H             0.3057715748        0.6511711957        0.5457486836
H             0.6942284602        0.3453995458        0.4542514880
H             0.1600819645        0.3260581991        0.4279282754
H             0.6690449965        0.8528750107        0.4481979122
H             0.8568972638        0.6936401183        0.4756236114
H             0.8399180375        0.1659762419        0.5720717282
H             0.3309550031        0.1838300621        0.5518020941
H             0.1431027267        0.8367428276        0.5243763984
H             0.1538736408        0.2967991278        0.9643726349
H             0.6978358318        0.8337759366        0.9886714753
H             0.8329248042        0.6519260538        0.9367930581
H             0.8461263829        0.1429255098        0.0356273760
H             0.3021641734        0.1359401296        0.0113285490
H             0.1670751821        0.8190012478        0.0632069626



     Writing output data file ./out/yh9.save/
     NEW-OLD atomic charge density approx. for the potential
     extrapolated charge   36.92016, renormalised to   40.00000

     total cpu time spent up to now is     2539.3 secs

     Self-consistent Calculation

     iteration #  1     ecut=    80.00 Ry     beta= 0.30
     Davidson diagonalization with overlap
     c_bands:  1 eigenvalues not converged
     c_bands:  1 eigenvalues not converged
     c_bands:  1 eigenvalues not converged
     c_bands:  1 eigenvalues not converged
     c_bands:  1 eigenvalues not converged
     c_bands:  1 eigenvalues not converged
     c_bands:  1 eigenvalues not converged
     c_bands:  1 eigenvalues not converged
     c_bands:  1 eigenvalues not converged
     c_bands:  1 eigenvalues not converged
     c_bands:  1 eigenvalues not converged
     c_bands:  1 eigenvalues not converged
     c_bands:  1 eigenvalues not converged
     c_bands:  1 eigenvalues not converged
     c_bands:  1 eigenvalues not converged
     c_bands:  1 eigenvalues not converged
     c_bands:  1 eigenvalues not converged
     c_bands:  1 eigenvalues not converged
     c_bands:  1 eigenvalues not converged
     c_bands:  1 eigenvalues not converged
     c_bands:  1 eigenvalues not converged
     c_bands:  1 eigenvalues not converged
     c_bands:  1 eigenvalues not converged
     c_bands:  1 eigenvalues not converged
     c_bands:  1 eigenvalues not converged
     c_bands:  1 eigenvalues not converged
     c_bands:  1 eigenvalues not converged
     c_bands:  1 eigenvalues not converged
     c_bands:  1 eigenvalues not converged
     c_bands:  1 eigenvalues not converged
     c_bands:  1 eigenvalues not converged
     c_bands:  1 eigenvalues not converged
     c_bands:  1 eigenvalues not converged
     c_bands:  1 eigenvalues not converged
     c_bands:  1 eigenvalues not converged
     c_bands:  1 eigenvalues not converged
     ethr =  1.00E-06,  avg # of iterations = 14.5

     total cpu time spent up to now is     2634.3 secs

     total energy              =    -184.78317857 Ry
     estimated scf accuracy    <       0.17206127 Ry

     iteration #  2     ecut=    80.00 Ry     beta= 0.30
     Davidson diagonalization with overlap
     ethr =  4.30E-04,  avg # of iterations =  3.1

     total cpu time spent up to now is     2669.8 secs

     total energy              =    -184.93922402 Ry
     estimated scf accuracy    <       0.10539587 Ry

     iteration #  3     ecut=    80.00 Ry     beta= 0.30
     Davidson diagonalization with overlap
     ethr =  2.63E-04,  avg # of iterations =  2.0

     total cpu time spent up to now is     2693.9 secs

     total energy              =    -184.94414923 Ry
     estimated scf accuracy    <       0.02167478 Ry

     iteration #  4     ecut=    80.00 Ry     beta= 0.30
     Davidson diagonalization with overlap
     ethr =  5.42E-05,  avg # of iterations =  2.0

     total cpu time spent up to now is     2715.9 secs

     total energy              =    -184.93792129 Ry
     estimated scf accuracy    <       0.01189391 Ry

     iteration #  5     ecut=    80.00 Ry     beta= 0.30
     Davidson diagonalization with overlap
     ethr =  2.97E-05,  avg # of iterations =  2.2

     total cpu time spent up to now is     2746.0 secs

     total energy              =    -184.94132883 Ry
     estimated scf accuracy    <       0.00150348 Ry

     iteration #  6     ecut=    80.00 Ry     beta= 0.30
     Davidson diagonalization with overlap
     ethr =  3.76E-06,  avg # of iterations =  4.3

     total cpu time spent up to now is     2773.4 secs

     total energy              =    -184.94110731 Ry
     estimated scf accuracy    <       0.00102219 Ry

     iteration #  7     ecut=    80.00 Ry     beta= 0.30
     Davidson diagonalization with overlap
     ethr =  2.56E-06,  avg # of iterations =  2.2

     total cpu time spent up to now is     2799.5 secs

     total energy              =    -184.94130147 Ry
     estimated scf accuracy    <       0.00001754 Ry

     iteration #  8     ecut=    80.00 Ry     beta= 0.30
     Davidson diagonalization with overlap
     ethr =  4.39E-08,  avg # of iterations =  2.3

     total cpu time spent up to now is     2827.7 secs

     total energy              =    -184.94130534 Ry
     estimated scf accuracy    <       0.00000162 Ry

     iteration #  9     ecut=    80.00 Ry     beta= 0.30
     Davidson diagonalization with overlap
     ethr =  4.05E-09,  avg # of iterations =  2.8

     total cpu time spent up to now is     2854.8 secs

     total energy              =    -184.94130563 Ry
     estimated scf accuracy    <       0.00000082 Ry

     iteration # 10     ecut=    80.00 Ry     beta= 0.30
     Davidson diagonalization with overlap
     ethr =  2.06E-09,  avg # of iterations =  2.1

     total cpu time spent up to now is     2880.9 secs

     total energy              =    -184.94130582 Ry
     estimated scf accuracy    <       0.00000004 Ry

     iteration # 11     ecut=    80.00 Ry     beta= 0.30
     Davidson diagonalization with overlap
     ethr =  1.02E-10,  avg # of iterations =  2.1

     total cpu time spent up to now is     2904.9 secs

     total energy              =    -184.94130584 Ry
     estimated scf accuracy    <          5.2E-09 Ry

     iteration # 12     ecut=    80.00 Ry     beta= 0.30
     Davidson diagonalization with overlap
     ethr =  1.29E-11,  avg # of iterations =  2.4

     total cpu time spent up to now is     2934.2 secs

     total energy              =    -184.94130585 Ry
     estimated scf accuracy    <          1.1E-09 Ry

     iteration # 13     ecut=    80.00 Ry     beta= 0.30
     Davidson diagonalization with overlap
     ethr =  2.68E-12,  avg # of iterations =  1.7

     total cpu time spent up to now is     2956.5 secs

     total energy              =    -184.94130586 Ry
     estimated scf accuracy    <          3.2E-10 Ry

     iteration # 14     ecut=    80.00 Ry     beta= 0.30
     Davidson diagonalization with overlap
     ethr =  8.04E-13,  avg # of iterations =  2.6

     total cpu time spent up to now is     2987.3 secs

     total energy              =    -184.94130586 Ry
     estimated scf accuracy    <          2.1E-10 Ry

     iteration # 15     ecut=    80.00 Ry     beta= 0.30
     Davidson diagonalization with overlap
     ethr =  5.32E-13,  avg # of iterations =  2.0

     total cpu time spent up to now is     3014.9 secs

     End of self-consistent calculation

     Number of k-points >= 100: set verbosity='high' to print the bands.

     the Fermi energy is    18.5676 ev

!    total energy              =    -184.94130586 Ry
     estimated scf accuracy    <          1.2E-12 Ry
     smearing contrib. (-TS)   =      -0.00000466 Ry
     internal energy E=F+TS    =    -184.94130120 Ry

     The total energy is F=E-TS. E is the sum of the following terms:
     one-electron contribution =      28.57086874 Ry
     hartree contribution      =      15.48688295 Ry
     xc contribution           =     -52.88858269 Ry
     ewald contribution        =    -176.11047021 Ry

     convergence has been achieved in  15 iterations

     Forces acting on atoms (cartesian axes, Ry/au):

     atom    1 type  1   force =    -0.00459294   -0.00756667   -0.29183424
     atom    2 type  1   force =     0.00885032    0.00019466    0.29184000
     atom    3 type  2   force =    -0.03299795   -0.01196230   -0.01383040
     atom    4 type  2   force =     0.02685842    0.02259573    0.01383071
     atom    5 type  2   force =    -0.04292266   -0.01929085   -0.01022651
     atom    6 type  2   force =     0.03816748    0.02752643    0.01022634
     atom    7 type  2   force =    -0.03895820   -0.06439968   -0.30752457
     atom    8 type  2   force =     0.07525021    0.00153868    0.30752077
     atom    9 type  2   force =    -0.03183714    0.00468648   -0.03817998
     atom   10 type  2   force =    -0.01632449    0.02630333    0.00124918
     atom   11 type  2   force =    -0.02816757   -0.01902434   -0.02233846
     atom   12 type  2   force =     0.01186022    0.02991515    0.03817973
     atom   13 type  2   force =    -0.01461723    0.02728895   -0.00124946
     atom   14 type  2   force =     0.03055921    0.01488173    0.02233796
     atom   15 type  2   force =    -0.02066142    0.03044784    0.03402445
     atom   16 type  2   force =    -0.02705853   -0.04517411    0.03153973
     atom   17 type  2   force =     0.00574486   -0.03129942    0.00817680
     atom   18 type  2   force =    -0.01603756    0.03311700   -0.03402500
     atom   19 type  2   force =     0.05265114    0.00084614   -0.03153998
     atom   20 type  2   force =     0.02423382   -0.02062477   -0.00817707

     Total force =     0.635124     Total SCF correction =     0.000004


     Computing stress (Cartesian axis) and pressure

          total   stress  (Ry/bohr**3)                   (kbar)     P=     2896.63
   0.01937352   0.00008685   0.00062882         2849.94       12.78       92.50
   0.00008685   0.01927324   0.00036305           12.78     2835.19       53.41
   0.00062882   0.00036305   0.02042587           92.50       53.41     3004.75

     Energy error            =      1.6E-01
     Gradient error          =      3.1E-01
     Cell gradient error     =      3.4E-03


     number of scf cycles    =   6
     number of bfgs steps    =   5

     enthalpy old            =    -179.0425839377 Ry
     enthalpy new            =    -179.2001714525 Ry

     CASE: enthalpy_new < enthalpy_old

     new trust radius        =       0.1833412166 bohr
     new conv_thr            =            1.0E-10 Ry

     new unit-cell volume =    335.48120 a.u.^3 (    49.71318 Ang^3 )
     density =      6.54539 g/cm^3

CELL_PARAMETERS (alat=  6.77000000)
   0.836904360   0.029283348   0.064611715
  -0.393092056   0.680855460   0.000000023
   0.097128843   0.056077410   1.869682491

ATOMIC_POSITIONS (crystal)
Y             0.6135390415        0.3170864637        0.2501762020
Y             0.3864611390        0.7035474973        0.7498243970
H            -0.0017112994        0.0203695153        0.2490765443
H             0.0017112475        0.0220807924        0.7509234731
H             0.3328963492        0.6696402504        0.1697898289
H             0.6671036017        0.3367438467        0.8302101498
H             0.2796122839        0.6309393969        0.5369524970
H             0.7203875994        0.3513269757        0.4630471299
H             0.1549207127        0.3292596575        0.4167078801
H             0.6654006721        0.8603074710        0.4501263426
H             0.8495030323        0.6867742127        0.4765240575
H             0.8450793380        0.1743389777        0.5832920892
H             0.3345992932        0.1949068338        0.5498736204
H             0.1504969395        0.8372711555        0.5234758814
H             0.1628225570        0.3188930320        0.9665813441
H             0.6736430549        0.8093812191        0.9978134007
H             0.8273791447        0.6363516038        0.9379646781
H             0.8371774866        0.1560704631        0.0334185894
H             0.3263569271        0.1357381549        0.0021865909
H             0.1726208793        0.8089724805        0.0620353035



     Writing output data file ./out/yh9.save/
     NEW-OLD atomic charge density approx. for the potential
     extrapolated charge   39.72120, renormalised to   40.00000

     total cpu time spent up to now is     3030.2 secs

     Self-consistent Calculation

     iteration #  1     ecut=    80.00 Ry     beta= 0.30
     Davidson diagonalization with overlap
     c_bands:  1 eigenvalues not converged
     c_bands:  1 eigenvalues not converged
     c_bands:  1 eigenvalues not converged
     c_bands:  1 eigenvalues not converged
     c_bands:  1 eigenvalues not converged
     c_bands:  1 eigenvalues not converged
     c_bands:  1 eigenvalues not converged
     ethr =  1.00E-06,  avg # of iterations = 12.2

     total cpu time spent up to now is     3114.4 secs

     total energy              =    -185.03272743 Ry
     estimated scf accuracy    <       0.01685971 Ry

     iteration #  2     ecut=    80.00 Ry     beta= 0.30
     Davidson diagonalization with overlap
     ethr =  4.21E-05,  avg # of iterations =  2.0

     total cpu time spent up to now is     3139.0 secs

     total energy              =    -185.03328716 Ry
     estimated scf accuracy    <       0.00765361 Ry

     iteration #  3     ecut=    80.00 Ry     beta= 0.30
     Davidson diagonalization with overlap
     ethr =  1.91E-05,  avg # of iterations =  1.9

     total cpu time spent up to now is     3161.9 secs

     total energy              =    -185.03328576 Ry
[...]
                l(2) =   0
                l(3) =   1
                l(4) =   1
                l(5) =   2
                l(6) =   2
     Q(r) pseudized with 0 coefficients 


     PseudoPot. # 2 for H  read from file:
     ./pseudo/H.pbe-rrkjus_psl.1.0.0.UPF
     MD5 check sum: 3f4114867bd07edc7f1424d066fc1888
     Pseudo is Ultrasoft, Zval =  1.0
     Generated using &quot;atomic&quot; code by A. Dal Corso  v.6.3MaX
     Using radial grid of  929 points,  2 beta functions with: 
                l(1) =   0
                l(2) =   0
     Q(r) pseudized with 0 coefficients 


     atomic species   valence    mass     pseudopotential
        Y             11.00    88.90590     Y ( 1.00)
        H              1.00     1.00800     H ( 1.00)

     No symmetry found



   Cartesian axes

     site n.     atom                  positions (alat units)
         1           Y   tau(   1) = (   0.3635694   0.2099031   0.4967434  )
         2           Y   tau(   2) = (   0.1715311   0.6173220   1.2820754  )
         3           H   tau(   3) = (  -0.0661942  -0.0382365   0.3428084  )
         4           H   tau(   4) = (   0.1607955   0.0928020   1.2378754  )
         5           H   tau(   5) = (  -0.0497221   0.4895716   0.2574773  )
         6           H   tau(   6) = (   0.5848445   0.3376158   1.5213416  )
         7           H   tau(   7) = (   0.0129967   0.2628012   0.8991970  )
         8           H   tau(   8) = (   0.7498646   0.1699297   0.8796164  )
         9           H   tau(   9) = (  -0.1172391   0.4506350   0.5462064  )
        10           H   tau(  10) = (   0.1195329   0.5873131   0.7702650  )
        11           H   tau(  11) = (   0.5220679   0.5644528   0.8796052  )
        12           H   tau(  12) = (   0.6523209   0.3766224   1.2326125  )
        13           H   tau(  13) = (   0.4155643   0.2399184   1.0085536  )
        14           H   tau(  14) = (  -0.2147709   0.6573413   0.8992189  )
        15           H   tau(  15) = (   0.0764066   0.2863168   1.7016955  )
        16           H   tau(  16) = (   0.3180668   0.7019273   1.8001683  )
        17           H   tau(  17) = (   0.5533205   0.5954412   1.6578194  )
        18           H   tau(  18) = (   0.6977872   0.1267841   0.0771169  )
        19           H   tau(  19) = (   0.2170267   0.1253105  -0.0213495  )
        20           H   tau(  20) = (  -0.2572473   0.6457939   0.1210054  )

     number of k points=   580  Methfessel-Paxton smearing, width (Ry)=  0.0100

     Number of k-points >= 100: set verbosity='high' to print them.

     Dense  grid:   126911 G-vectors     FFT dimensions: (  60,  60, 100)

     Smooth grid:    32145 G-vectors     FFT dimensions: (  36,  36,  64)

     Estimated max dynamical RAM per process >     165.06 MB

     Estimated total dynamical RAM >       1.45 GB

     Initial potential from superposition of free atoms

     starting charge   39.99166, renormalised to   40.00000
     Starting wfcs are   44 randomized atomic wfcs

     total cpu time spent up to now is    22785.1 secs

     Self-consistent Calculation

     iteration #  1     ecut=    80.00 Ry     beta= 0.30
     Davidson diagonalization with overlap
     c_bands:  1 eigenvalues not converged
     c_bands:  1 eigenvalues not converged
     c_bands:  1 eigenvalues not converged
     c_bands:  1 eigenvalues not converged
     c_bands:  1 eigenvalues not converged
     c_bands:  1 eigenvalues not converged
     c_bands:  1 eigenvalues not converged
     c_bands:  1 eigenvalues not converged
     c_bands:  1 eigenvalues not converged
     c_bands:  1 eigenvalues not converged
     c_bands:  1 eigenvalues not converged
     c_bands:  1 eigenvalues not converged
     c_bands:  1 eigenvalues not converged
     c_bands:  1 eigenvalues not converged
     c_bands:  1 eigenvalues not converged
     c_bands:  1 eigenvalues not converged
     c_bands:  1 eigenvalues not converged
     c_bands:  1 eigenvalues not converged
     c_bands:  1 eigenvalues not converged
     c_bands:  1 eigenvalues not converged
     c_bands:  1 eigenvalues not converged
     c_bands:  1 eigenvalues not converged
     c_bands:  1 eigenvalues not converged
     c_bands:  1 eigenvalues not converged
     c_bands:  1 eigenvalues not converged
     c_bands:  1 eigenvalues not converged
     c_bands:  1 eigenvalues not converged
     c_bands:  1 eigenvalues not converged
     c_bands:  1 eigenvalues not converged
     c_bands:  1 eigenvalues not converged
     c_bands:  1 eigenvalues not converged
     c_bands:  1 eigenvalues not converged
     c_bands:  1 eigenvalues not converged
     c_bands:  1 eigenvalues not converged
     c_bands:  1 eigenvalues not converged
     c_bands:  1 eigenvalues not converged
     c_bands:  1 eigenvalues not converged
     c_bands:  1 eigenvalues not converged
     c_bands:  1 eigenvalues not converged
     c_bands:  1 eigenvalues not converged
     c_bands:  1 eigenvalues not converged
     c_bands:  1 eigenvalues not converged
     c_bands:  1 eigenvalues not converged
     c_bands:  1 eigenvalues not converged
     c_bands:  1 eigenvalues not converged
     c_bands:  1 eigenvalues not converged
     c_bands:  1 eigenvalues not converged
     c_bands:  1 eigenvalues not converged
     c_bands:  1 eigenvalues not converged
     c_bands:  1 eigenvalues not converged
     c_bands:  1 eigenvalues not converged
     c_bands:  1 eigenvalues not converged
     c_bands:  1 eigenvalues not converged
     c_bands:  1 eigenvalues not converged
     c_bands:  1 eigenvalues not converged
     c_bands:  1 eigenvalues not converged
     c_bands:  1 eigenvalues not converged
     c_bands:  1 eigenvalues not converged
     c_bands:  1 eigenvalues not converged
     c_bands:  1 eigenvalues not converged
     c_bands:  1 eigenvalues not converged
     c_bands:  1 eigenvalues not converged
     c_bands:  1 eigenvalues not converged
     c_bands:  1 eigenvalues not converged
     c_bands:  1 eigenvalues not converged
     c_bands:  1 eigenvalues not converged
     c_bands:  1 eigenvalues not converged
     c_bands:  1 eigenvalues not converged
     c_bands:  1 eigenvalues not converged
     c_bands:  1 eigenvalues not converged
     c_bands:  1 eigenvalues not converged
     c_bands:  2 eigenvalues not converged
     c_bands:  2 eigenvalues not converged
     c_bands:  1 eigenvalues not converged
     c_bands:  1 eigenvalues not converged
     c_bands:  1 eigenvalues not converged
     c_bands:  1 eigenvalues not converged
     c_bands:  1 eigenvalues not converged
     c_bands:  1 eigenvalues not converged
     c_bands:  1 eigenvalues not converged
     c_bands:  1 eigenvalues not converged
     c_bands:  1 eigenvalues not converged
     c_bands:  1 eigenvalues not converged
     c_bands:  1 eigenvalues not converged
     c_bands:  1 eigenvalues not converged
     c_bands:  1 eigenvalues not converged
     c_bands:  1 eigenvalues not converged
     c_bands:  1 eigenvalues not converged
     c_bands:  1 eigenvalues not converged
     c_bands:  2 eigenvalues not converged
     c_bands:  1 eigenvalues not converged
     c_bands:  1 eigenvalues not converged
     c_bands:  1 eigenvalues not converged
     c_bands:  1 eigenvalues not converged
     c_bands:  1 eigenvalues not converged
     c_bands:  1 eigenvalues not converged
     c_bands:  1 eigenvalues not converged
     c_bands:  1 eigenvalues not converged
     c_bands:  1 eigenvalues not converged
     c_bands:  1 eigenvalues not converged
     c_bands:  1 eigenvalues not converged
     c_bands:  1 eigenvalues not converged
     c_bands:  1 eigenvalues not converged
     c_bands:  1 eigenvalues not converged
     c_bands:  1 eigenvalues not converged
     c_bands:  1 eigenvalues not converged
     c_bands:  1 eigenvalues not converged
     c_bands:  1 eigenvalues not converged
     c_bands:  1 eigenvalues not converged
     c_bands:  1 eigenvalues not converged
     c_bands:  1 eigenvalues not converged
     c_bands:  2 eigenvalues not converged
     c_bands:  1 eigenvalues not converged
     c_bands:  1 eigenvalues not converged
     c_bands:  1 eigenvalues not converged
     c_bands:  1 eigenvalues not converged
     c_bands:  1 eigenvalues not converged
     c_bands:  1 eigenvalues not converged
     c_bands:  1 eigenvalues not converged
     c_bands:  1 eigenvalues not converged
     c_bands:  1 eigenvalues not converged
     c_bands:  1 eigenvalues not converged
     c_bands:  1 eigenvalues not converged
     c_bands:  1 eigenvalues not converged
     c_bands:  1 eigenvalues not converged
     c_bands:  1 eigenvalues not converged
     c_bands:  1 eigenvalues not converged
     c_bands:  1 eigenvalues not converged
     c_bands:  1 eigenvalues not converged
     c_bands:  1 eigenvalues not converged
     c_bands:  1 eigenvalues not converged
     c_bands:  1 eigenvalues not converged
     c_bands:  1 eigenvalues not converged
     c_bands:  1 eigenvalues not converged
     c_bands:  1 eigenvalues not converged
     c_bands:  1 eigenvalues not converged
     c_bands:  1 eigenvalues not converged
     c_bands:  1 eigenvalues not converged
     c_bands:  1 eigenvalues not converged
     c_bands:  1 eigenvalues not converged
     c_bands:  1 eigenvalues not converged
     c_bands:  1 eigenvalues not converged
     c_bands:  1 eigenvalues not converged
     c_bands:  1 eigenvalues not converged
     c_bands:  1 eigenvalues not converged
     c_bands:  1 eigenvalues not converged
     c_bands:  1 eigenvalues not converged
     c_bands:  1 eigenvalues not converged
     c_bands:  1 eigenvalues not converged
     c_bands:  1 eigenvalues not converged
     c_bands:  1 eigenvalues not converged
     c_bands:  1 eigenvalues not converged
     c_bands:  1 eigenvalues not converged
     c_bands:  1 eigenvalues not converged
     c_bands:  1 eigenvalues not converged
     c_bands:  1 eigenvalues not converged
     c_bands:  1 eigenvalues not converged
     c_bands:  1 eigenvalues not converged
     c_bands:  1 eigenvalues not converged
     c_bands:  1 eigenvalues not converged
     c_bands:  1 eigenvalues not converged
     c_bands:  1 eigenvalues not converged
     c_bands:  1 eigenvalues not converged
     ethr =  1.00E-06,  avg # of iterations = 16.5

     total cpu time spent up to now is    22862.8 secs

     total energy              =    -185.67924560 Ry
     estimated scf accuracy    <       0.39740547 Ry

     iteration #  2     ecut=    80.00 Ry     beta= 0.30
     Davidson diagonalization with overlap
     ethr =  9.94E-04,  avg # of iterations =  1.0

     total cpu time spent up to now is    22882.2 secs

     total energy              =    -185.64615411 Ry
     estimated scf accuracy    <       0.11726637 Ry

     iteration #  3     ecut=    80.00 Ry     beta= 0.30
     Davidson diagonalization with overlap
     ethr =  2.93E-04,  avg # of iterations =  3.1

     total cpu time spent up to now is    22910.3 secs

     total energy              =    -185.66650016 Ry
     estimated scf accuracy    <       0.00990825 Ry

     iteration #  4     ecut=    80.00 Ry     beta= 0.30
     Davidson diagonalization with overlap
     ethr =  2.48E-05,  avg # of iterations =  4.9

     total cpu time spent up to now is    22935.1 secs

     total energy              =    -185.66623044 Ry
     estimated scf accuracy    <       0.00389118 Ry

     iteration #  5     ecut=    80.00 Ry     beta= 0.30
     Davidson diagonalization with overlap
     c_bands:  1 eigenvalues not converged
     ethr =  9.73E-06,  avg # of iterations =  2.4

     total cpu time spent up to now is    22962.7 secs

     total energy              =    -185.66652258 Ry
     estimated scf accuracy    <       0.00061807 Ry

     iteration #  6     ecut=    80.00 Ry     beta= 0.30
     Davidson diagonalization with overlap
     ethr =  1.55E-06,  avg # of iterations =  3.7

     total cpu time spent up to now is    22991.4 secs

     total energy              =    -185.66662073 Ry
     estimated scf accuracy    <       0.00001160 Ry

     iteration #  7     ecut=    80.00 Ry     beta= 0.30
     Davidson diagonalization with overlap
     ethr =  2.90E-08,  avg # of iterations =  3.5

     total cpu time spent up to now is    23022.1 secs

     total energy              =    -185.66662180 Ry
     estimated scf accuracy    <       0.00000779 Ry

     iteration #  8     ecut=    80.00 Ry     beta= 0.30
     Davidson diagonalization with overlap
     ethr =  1.95E-08,  avg # of iterations =  2.0

     total cpu time spent up to now is    23047.4 secs

     total energy              =    -185.66662285 Ry
     estimated scf accuracy    <       0.00000034 Ry

     iteration #  9     ecut=    80.00 Ry     beta= 0.30
     Davidson diagonalization with overlap
     ethr =  8.62E-10,  avg # of iterations =  3.1

     total cpu time spent up to now is    23073.5 secs

     total energy              =    -185.66662294 Ry
     estimated scf accuracy    <       0.00000001 Ry

     iteration # 10     ecut=    80.00 Ry     beta= 0.30
     Davidson diagonalization with overlap
     ethr =  3.10E-11,  avg # of iterations =  3.1

     total cpu time spent up to now is    23101.9 secs

     total energy              =    -185.66662294 Ry
     estimated scf accuracy    <       0.00000002 Ry

     iteration # 11     ecut=    80.00 Ry     beta= 0.30
     Davidson diagonalization with overlap
     ethr =  3.10E-11,  avg # of iterations =  2.0

     total cpu time spent up to now is    23126.6 secs

     total energy              =    -185.66662294 Ry
     estimated scf accuracy    <          1.3E-09 Ry

     iteration # 12     ecut=    80.00 Ry     beta= 0.30
     Davidson diagonalization with overlap
     ethr =  3.15E-12,  avg # of iterations =  3.3

     total cpu time spent up to now is    23156.1 secs

     total energy              =    -185.66662294 Ry
     estimated scf accuracy    <          4.1E-10 Ry

     iteration # 13     ecut=    80.00 Ry     beta= 0.30
     Davidson diagonalization with overlap
     ethr =  1.03E-12,  avg # of iterations =  2.1

     total cpu time spent up to now is    23181.0 secs

     total energy              =    -185.66662294 Ry
     estimated scf accuracy    <          8.3E-12 Ry

     iteration # 14     ecut=    80.00 Ry     beta= 0.30
     Davidson diagonalization with overlap
     ethr =  1.00E-13,  avg # of iterations =  1.5

     total cpu time spent up to now is    23201.5 secs

     total energy              =    -185.66662294 Ry
     estimated scf accuracy    <          6.2E-12 Ry

     iteration # 15     ecut=    80.00 Ry     beta= 0.30
     Davidson diagonalization with overlap
     ethr =  1.00E-13,  avg # of iterations =  1.1

     total cpu time spent up to now is    23221.1 secs

     End of self-consistent calculation

     Number of k-points >= 100: set verbosity='high' to print the bands.

     the Fermi energy is    19.8922 ev

!    total energy              =    -185.66662294 Ry
     estimated scf accuracy    <          5.7E-13 Ry
     smearing contrib. (-TS)   =       0.00005125 Ry
     internal energy E=F+TS    =    -185.66667419 Ry

     The total energy is F=E-TS. E is the sum of the following terms:
     one-electron contribution =      34.71995187 Ry
     hartree contribution      =      12.82987901 Ry
     xc contribution           =     -52.55642667 Ry
     ewald contribution        =    -180.66007841 Ry

     convergence has been achieved in  15 iterations

     Forces acting on atoms (cartesian axes, Ry/au):

     atom    1 type  1   force =     0.00003956    0.00000165   -0.00002537
     atom    2 type  1   force =    -0.00002126   -0.00003308    0.00002501
     atom    3 type  2   force =    -0.00001750    0.00001282    0.00001837
     atom    4 type  2   force =    -0.00000279    0.00002218   -0.00001833
     atom    5 type  2   force =    -0.00004692   -0.00001554    0.00001572
     atom    6 type  2   force =     0.00003700    0.00003275   -0.00001589
     atom    7 type  2   force =     0.00003353   -0.00002703    0.00002976
     atom    8 type  2   force =     0.00000633   -0.00004308   -0.00002967
     atom    9 type  2   force =     0.00000762   -0.00000920   -0.00001282
     atom   10 type  2   force =     0.00000721    0.00000438    0.00000099
     atom   11 type  2   force =     0.00000287    0.00001175   -0.00001400
     atom   12 type  2   force =     0.00000423   -0.00001103    0.00001248
     atom   13 type  2   force =    -0.00000716   -0.00000451   -0.00000070
     atom   14 type  2   force =    -0.00001143    0.00000357    0.00001404
     atom   15 type  2   force =    -0.00001717    0.00002929   -0.00003505
     atom   16 type  2   force =     0.00001130   -0.00000737    0.00004226
     atom   17 type  2   force =    -0.00000685    0.00000680    0.00003031
     atom   18 type  2   force =    -0.00001636    0.00002999    0.00003517
     atom   19 type  2   force =     0.00000016   -0.00001316   -0.00004228
     atom   20 type  2   force =    -0.00000236    0.00000883   -0.00003001

     Total force =     0.000170     Total SCF correction =     0.000002


     Computing stress (Cartesian axis) and pressure

          total   stress  (Ry/bohr**3)                   (kbar)     P=     2500.06
   0.01699410  -0.00000007   0.00000182         2499.92       -0.01        0.27
  -0.00000007   0.01699409   0.00000108           -0.01     2499.92        0.16
   0.00000182   0.00000108   0.01699690            0.27        0.16     2500.33


     Writing output data file ./out/yh9.save/

     init_run     :     32.06s CPU     33.00s WALL (       2 calls)
     electrons    :  21389.21s CPU  22035.04s WALL (      79 calls)
     update_pot   :    113.86s CPU    114.06s WALL (      77 calls)
     forces       :    407.14s CPU    417.66s WALL (      79 calls)
     stress       :    604.87s CPU    615.89s WALL (      79 calls)

     Called by init_run:
     wfcinit      :     29.60s CPU     30.45s WALL (       2 calls)
     potinit      :      0.81s CPU      0.82s WALL (       2 calls)
     hinit0       :      1.47s CPU      1.49s WALL (       2 calls)

     Called by electrons:
     c_bands      :  19173.75s CPU  19663.99s WALL (     811 calls)
     sum_band     :   2151.09s CPU   2273.68s WALL (     811 calls)
     v_of_rho     :     13.74s CPU     15.03s WALL (     873 calls)
     newd         :     54.06s CPU     88.25s WALL (     873 calls)
     mix_rho      :      1.22s CPU      1.43s WALL (     811 calls)

     Called by c_bands:
     init_us_2    :    221.26s CPU    223.99s WALL ( 1033560 calls)
     cegterg      :  18601.18s CPU  19084.91s WALL (  470380 calls)

     Called by *egterg:
     cdiaghg      :   1128.45s CPU   1137.45s WALL ( 1637158 calls)
     h_psi        :  10211.17s CPU  10610.56s WALL ( 1692838 calls)
     s_psi        :   1963.44s CPU   1973.36s WALL ( 1692838 calls)
     g_psi        :     77.61s CPU     78.07s WALL ( 1221298 calls)

     Called by h_psi:
     h_psi:calbec :   1946.25s CPU   2028.00s WALL ( 1692838 calls)
     vloc_psi     :   6275.80s CPU   6584.36s WALL ( 1692838 calls)
     add_vuspsi   :   1959.06s CPU   1968.71s WALL ( 1692838 calls)

     General routines
     calbec       :   3062.40s CPU   3183.40s WALL ( 2392318 calls)
     fft          :      8.56s CPU     10.51s WALL (   13260 calls)
     ffts         :      0.37s CPU      0.44s WALL (    1684 calls)
     fftw         :   6630.18s CPU   6953.60s WALL (69899232 calls)
     interpolate  :      0.75s CPU      0.91s WALL (     873 calls)

     Parallel routines
     fft_scatt_xy :    726.03s CPU    760.43s WALL (69914176 calls)
     fft_scatt_yz :   2039.63s CPU   2145.86s WALL (69914176 calls)

     PWSCF        :      6h16m CPU      6h27m WALL


   This run was terminated on:  12:27:36  31May2026            

=------------------------------------------------------------------------------=
   JOB DONE.
=------------------------------------------------------------------------------=
