
     Program PWSCF v.7.5 starts on 26May2026 at 23:52:55 

     This program is part of the open-source Quantum ESPRESSO suite
     for quantum simulation of materials; please cite
         "P. Giannozzi et al., J. Phys.:Condens. Matter 21 395502 (2009);
         "P. Giannozzi et al., J. Phys.:Condens. Matter 29 465901 (2017);
         "P. Giannozzi et al., J. Chem. Phys. 152 154105 (2020);
          URL http://www.quantum-espresso.org", 
     in publications or presentations arising from this work. More details at
     http://www.quantum-espresso.org/quote

     Parallel version (MPI & OpenMP), running on       6 processor cores
     Number of MPI processes:                 6
     Threads/MPI process:                     1

     MPI processes distributed on     1 nodes
     2156 MiB available memory on the printing compute node when the environment starts

     Reading input from relax.in

     Current dimensions of program PWSCF are:
     Max number of different atomic species (ntypx) = 10
     Max number of k-points (npk) =  40000
     Max angular momentum in pseudopotentials (lmaxx) =  4
     file Cu.pbe-dn-rrkjus_psl.1.0.0.UPF: wavefunction(s)  3D renormalized

     R & G space division:  proc/nbgrp/npool/nimage =       6
     Subspace diagonalization in iterative solution of the eigenvalue problem:
     a serial algorithm will be used


     Parallelization info
     --------------------
     sticks:   dense  smooth     PW     G-vecs:    dense   smooth      PW
     Min         593     236     70                23255     5857     933
     Max         594     237     71                23257     5860     936
     Sum        3559    1417    421               139535    35149    5601

     Using Slab Decomposition



     bravais-lattice index     =            2
     lattice parameter (alat)  =      11.3400  a.u.
     unit-cell volume          =     364.5685 (a.u.)^3
     number of atoms/cell      =            9
     number of atomic types    =            3
     number of electrons       =        23.00
     number of Kohn-Sham states=           16
     kinetic-energy cutoff     =      80.0000  Ry
     charge density cutoff     =     800.0000  Ry
     scf convergence threshold =      1.0E-10
     mixing beta               =       0.7000
     number of iterations used =            8  plain     mixing
     energy convergence thresh.=      1.0E-05
     force convergence thresh. =      1.0E-04
     press convergence thresh. =      5.0E-01
     Exchange-correlation= PBE
                           (   1   4   3   4   0   0   0)
     nstep                     =          200


     celldm(1)=  11.340000  celldm(2)=   0.000000  celldm(3)=   0.000000
     celldm(4)=   0.000000  celldm(5)=   0.000000  celldm(6)=   0.000000

     crystal axes: (cart. coord. in units of alat)
               a(1) = (  -0.500000   0.000000   0.500000 )  
               a(2) = (   0.000000   0.500000   0.500000 )  
               a(3) = (  -0.500000   0.500000   0.000000 )  

     reciprocal axes: (cart. coord. in units 2 pi/alat)
               b(1) = ( -1.000000 -1.000000  1.000000 )  
               b(2) = (  1.000000  1.000000  1.000000 )  
               b(3) = ( -1.000000  1.000000 -1.000000 )  


     PseudoPot. # 1 for Li read from file:
     /home/aiden/rtsc_li2cuh6/pseudo/Li.pbe-s-rrkjus_psl.1.0.0.UPF
     MD5 check sum: 4064740962d1d7f158a8c2c63025dc63
     Pseudo is Ultrasoft, Zval =  3.0
     Generated using &quot;atomic&quot; code by A. Dal Corso  v.6.3MaX
     Using radial grid of 1017 points,  4 beta functions with: 
                l(1) =   0
                l(2) =   0
                l(3) =   1
                l(4) =   1
     Q(r) pseudized with 0 coefficients 


     PseudoPot. # 2 for Cu read from file:
     /home/aiden/rtsc_li2cuh6/pseudo/Cu.pbe-dn-rrkjus_psl.1.0.0.UPF
     MD5 check sum: ba3d6c84e19846e79d48cdc68ff7152b
     Pseudo is Ultrasoft + core correction, Zval = 11.0
     Generated using &quot;atomic&quot; code by A. Dal Corso  v.6.3
     Using radial grid of 1199 points,  6 beta functions with: 
                l(1) =   0
                l(2) =   0
                l(3) =   1
                l(4) =   1
                l(5) =   2
                l(6) =   2
     Q(r) pseudized with 0 coefficients 


     PseudoPot. # 3 for H  read from file:
     /home/aiden/rtsc_li2cuh6/pseudo/H.pbe-rrkjus_psl.1.0.0.UPF
     MD5 check sum: 3f4114867bd07edc7f1424d066fc1888
     Pseudo is Ultrasoft, Zval =  1.0
     Generated using &quot;atomic&quot; code by A. Dal Corso  v.6.3MaX
     Using radial grid of  929 points,  2 beta functions with: 
                l(1) =   0
                l(2) =   0
     Q(r) pseudized with 0 coefficients 


     atomic species   valence    mass     pseudopotential
     Li                3.00     6.94100     Li( 1.00)
     Cu               11.00    63.54600     Cu( 1.00)
     H                 1.00     1.00800     H ( 1.00)

     12 Sym. Ops., with inversion, found



   Cartesian axes

     site n.     atom                  positions (alat units)
         1        Cu     tau(   1) = (   0.0000000   0.0000000   0.0000000  )
         2        Li     tau(   2) = (  -0.2500000   0.2500000   0.2500000  )
         3        Li     tau(   3) = (  -0.7500000   0.7500000   0.7500000  )
         4        H      tau(   4) = (  -0.1200000   0.0000000   0.1200000  )
         5        H      tau(   5) = (  -0.3800000   0.0000000   0.3800000  )
         6        H      tau(   6) = (   0.0000000   0.1200000   0.1200000  )
         7        H      tau(   7) = (   0.0000000   0.3800000   0.3800000  )
         8        H      tau(   8) = (  -0.1200000   0.1200000   0.0000000  )
         9        H      tau(   9) = (  -0.3800000   0.3800000   0.0000000  )

     number of k points=   417  Methfessel-Paxton smearing, width (Ry)=  0.0200

     Number of k-points >= 100: set verbosity='high' to print them.

     Dense  grid:   139535 G-vectors     FFT dimensions: (  75,  75,  75)

     Smooth grid:    35149 G-vectors     FFT dimensions: (  45,  45,  45)

     Estimated max dynamical RAM per process >     176.89 MB

     Estimated total dynamical RAM >       1.04 GB

     Initial potential from superposition of free atoms

     starting charge      22.9905, renormalised to      23.0000
     Starting wfcs are   25 randomized atomic wfcs

     total cpu time spent up to now is        4.2 secs

     per-process dynamical memory:   119.2 Mb

     Self-consistent Calculation

     iteration #  1     ecut=    80.00 Ry     beta= 0.70
     Davidson diagonalization with overlap
     ethr =  1.00E-02,  avg # of iterations =  4.1

     total cpu time spent up to now is       12.2 secs

     total energy              =    -157.03583909 Ry
     estimated scf accuracy    <       0.53922901 Ry

     iteration #  2     ecut=    80.00 Ry     beta= 0.70
     Davidson diagonalization with overlap
     ethr =  2.34E-03,  avg # of iterations =  2.1

     total cpu time spent up to now is       19.2 secs

     total energy              =    -157.08277335 Ry
     estimated scf accuracy    <       0.15720517 Ry

     iteration #  3     ecut=    80.00 Ry     beta= 0.70
     Davidson diagonalization with overlap
     ethr =  6.84E-04,  avg # of iterations =  2.6

     total cpu time spent up to now is       26.6 secs

     total energy              =    -157.12165058 Ry
     estimated scf accuracy    <       0.16170579 Ry

     iteration #  4     ecut=    80.00 Ry     beta= 0.70
     Davidson diagonalization with overlap
     ethr =  6.84E-04,  avg # of iterations =  2.0

     total cpu time spent up to now is       33.0 secs

     total energy              =    -157.15095737 Ry
     estimated scf accuracy    <       0.00033391 Ry

     iteration #  5     ecut=    80.00 Ry     beta= 0.70
     Davidson diagonalization with overlap
     ethr =  1.45E-06,  avg # of iterations =  6.6

     total cpu time spent up to now is       42.4 secs

     total energy              =    -157.15114311 Ry
     estimated scf accuracy    <       0.00005233 Ry

     iteration #  6     ecut=    80.00 Ry     beta= 0.70
     Davidson diagonalization with overlap
     ethr =  2.28E-07,  avg # of iterations =  2.0

     total cpu time spent up to now is       48.7 secs

     total energy              =    -157.15115025 Ry
     estimated scf accuracy    <       0.00000096 Ry

     iteration #  7     ecut=    80.00 Ry     beta= 0.70
     Davidson diagonalization with overlap
     ethr =  4.16E-09,  avg # of iterations =  4.0

     total cpu time spent up to now is       56.6 secs

     total energy              =    -157.15115079 Ry
     estimated scf accuracy    <       0.00000024 Ry

     iteration #  8     ecut=    80.00 Ry     beta= 0.70
     Davidson diagonalization with overlap
     ethr =  1.05E-09,  avg # of iterations =  2.0

     total cpu time spent up to now is       62.7 secs

     total energy              =    -157.15115082 Ry
     estimated scf accuracy    <          7.2E-09 Ry

     iteration #  9     ecut=    80.00 Ry     beta= 0.70
     Davidson diagonalization with overlap
     ethr =  3.11E-11,  avg # of iterations =  3.3

     total cpu time spent up to now is       70.2 secs

     total energy              =    -157.15115082 Ry
     estimated scf accuracy    <          4.2E-10 Ry

     iteration # 10     ecut=    80.00 Ry     beta= 0.70
     Davidson diagonalization with overlap
     ethr =  1.84E-12,  avg # of iterations =  2.8

     total cpu time spent up to now is       77.3 secs

     End of self-consistent calculation

     Number of k-points >= 100: set verbosity='high' to print the bands.

     the Fermi energy is     7.5938 ev

!    total energy              =    -157.15115082 Ry
     estimated scf accuracy    <          1.1E-11 Ry
     smearing contrib. (-TS)   =      -0.00060660 Ry
     internal energy E=F+TS    =    -157.15054422 Ry

     The total energy is F=E-TS. E is the sum of the following terms:
     one-electron contribution =    -115.16265483 Ry
     hartree contribution      =      69.90319110 Ry
     xc contribution           =     -57.61652399 Ry
     ewald contribution        =     -54.27455651 Ry

     convergence has been achieved in  10 iterations

     Forces acting on atoms (cartesian axes, Ry/au):

     atom    1 type  2   force =     0.00000000    0.00000000   -0.00000000
     atom    2 type  1   force =    -0.00911535    0.00911535    0.00911535
     atom    3 type  1   force =     0.00911535   -0.00911535   -0.00911535
     atom    4 type  3   force =    -0.72686978   -0.15686344    0.72686978
     atom    5 type  3   force =     0.72686978    0.15686344   -0.72686978
     atom    6 type  3   force =     0.15686344    0.72686978    0.72686978
     atom    7 type  3   force =    -0.15686344   -0.72686978   -0.72686978
     atom    8 type  3   force =    -0.72686978    0.72686978   -0.15686344
     atom    9 type  3   force =     0.72686978   -0.72686978    0.15686344

     Total force =     2.547197     Total SCF correction =     0.000003


     Computing stress (Cartesian axis) and pressure

          total   stress  (Ry/bohr**3)                   (kbar)     P=     1714.22
   0.01165300  -0.00439239  -0.00439239         1714.22     -646.14     -646.14
  -0.00439239   0.01165300   0.00439239         -646.14     1714.22      646.14
  -0.00439239   0.00439239   0.01165300         -646.14      646.14     1714.22


     BFGS Geometry Optimization
     Energy error            =      7.6E+00 Ry
     Gradient error          =      7.3E-01 Ry/Bohr
     Cell gradient error     =      1.7E+03 kbar

     number of scf cycles    =   1
     number of bfgs steps    =   0

     enthalpy           new  =    -157.1511508246 Ry

     new trust radius        =       0.5000000000 bohr
     new conv_thr            =            1.0E-10 Ry

     new unit-cell volume =    503.84742 a.u.^3 (    74.66248 Ang^3 )
     density =      1.85656 g/cm^3

CELL_PARAMETERS (alat= 11.34000000)
  -0.579547055   0.043551635   0.579547055
  -0.043551635   0.579547055   0.579547055
  -0.579547055   0.579547055   0.043551635

ATOMIC_POSITIONS (crystal)
Cu              -0.0000000000        0.0000000000        0.0000000000
Li               0.2503188044        0.2503188044        0.2503188044
Li               0.7496811956        0.7496811956        0.7496811956
H                0.2963299617       -0.0054862134       -0.0054862134
H                0.7036700383        0.0054862134        0.0054862134
H               -0.0054862134        0.2963299617       -0.0054862134
H                0.0054862134        0.7036700383        0.0054862134
H               -0.0054862134       -0.0054862134        0.2963299617
H                0.0054862134        0.0054862134        0.7036700383



     Writing config-only to output data dir /home/aiden/rtsc_li2cuh6/out/li2cuh6.save/ :
     XML data file
     NEW-OLD atomic charge density approx. for the potential
     New effective cutoffs (rho, wfc):  695.58   69.61

     total cpu time spent up to now is       80.3 secs

     per-process dynamical memory:   142.5 Mb

     Self-consistent Calculation

     iteration #  1     ecut=    80.00 Ry     beta= 0.70
     Davidson diagonalization with overlap
     c_bands:  1 eigenvalues not converged
     c_bands:  1 eigenvalues not converged
     c_bands:  1 eigenvalues not converged
     c_bands:  1 eigenvalues not converged
     c_bands:  1 eigenvalues not converged
     c_bands:  1 eigenvalues not converged
     c_bands:  1 eigenvalues not converged
     c_bands:  1 eigenvalues not converged
     c_bands:  1 eigenvalues not converged
     c_bands:  1 eigenvalues not converged
     c_bands:  1 eigenvalues not converged
     c_bands:  1 eigenvalues not converged
     c_bands:  1 eigenvalues not converged
     c_bands:  1 eigenvalues not converged
     c_bands:  1 eigenvalues not converged
     c_bands:  1 eigenvalues not converged
     c_bands:  1 eigenvalues not converged
     c_bands:  1 eigenvalues not converged
     c_bands:  1 eigenvalues not converged
     c_bands:  1 eigenvalues not converged
     c_bands:  1 eigenvalues not converged
     c_bands:  1 eigenvalues not converged
     c_bands:  1 eigenvalues not converged
     c_bands:  1 eigenvalues not converged
     c_bands:  1 eigenvalues not converged
     c_bands:  1 eigenvalues not converged
     c_bands:  1 eigenvalues not converged
     c_bands:  1 eigenvalues not converged
     c_bands:  1 eigenvalues not converged
     c_bands:  1 eigenvalues not converged
     c_bands:  1 eigenvalues not converged
     c_bands:  1 eigenvalues not converged
     c_bands:  1 eigenvalues not converged
     c_bands:  1 eigenvalues not converged
     c_bands:  1 eigenvalues not converged
     c_bands:  1 eigenvalues not converged
     c_bands:  1 eigenvalues not converged
     c_bands:  1 eigenvalues not converged
     ethr =  1.00E-06,  avg # of iterations = 14.9

     total cpu time spent up to now is      105.4 secs

     total energy              =    -159.03641476 Ry
     estimated scf accuracy    <       0.18311983 Ry

     iteration #  2     ecut=    80.00 Ry     beta= 0.70
     Davidson diagonalization with overlap
     ethr =  7.96E-04,  avg # of iterations =  2.0

     total cpu time spent up to now is      112.8 secs

     total energy              =    -159.01619616 Ry
     estimated scf accuracy    <       0.82931922 Ry

     iteration #  3     ecut=    80.00 Ry     beta= 0.70
     Davidson diagonalization with overlap
     ethr =  7.96E-04,  avg # of iterations =  2.0

     total cpu time spent up to now is      120.1 secs

     total energy              =    -159.13625044 Ry
     estimated scf accuracy    <       0.00233431 Ry

     iteration #  4     ecut=    80.00 Ry     beta= 0.70
     Davidson diagonalization with overlap
     ethr =  1.01E-05,  avg # of iterations =  3.1

     total cpu time spent up to now is      127.9 secs

     total energy              =    -159.13678432 Ry
     estimated scf accuracy    <       0.00035174 Ry

     iteration #  5     ecut=    80.00 Ry     beta= 0.70
     Davidson diagonalization with overlap
     ethr =  1.53E-06,  avg # of iterations =  2.9

     total cpu time spent up to now is      134.7 secs

     total energy              =    -159.13683523 Ry
     estimated scf accuracy    <       0.00000378 Ry

     iteration #  6     ecut=    80.00 Ry     beta= 0.70
     Davidson diagonalization with overlap
     ethr =  1.64E-08,  avg # of iterations =  3.8

     total cpu time spent up to now is      142.6 secs

     total energy              =    -159.13683835 Ry
     estimated scf accuracy    <       0.00000024 Ry

     iteration #  7     ecut=    80.00 Ry     beta= 0.70
     Davidson diagonalization with overlap
     ethr =  1.05E-09,  avg # of iterations =  2.4

     total cpu time spent up to now is      149.8 secs

     total energy              =    -159.13683843 Ry
     estimated scf accuracy    <       0.00000008 Ry

     iteration #  8     ecut=    80.00 Ry     beta= 0.70
     Davidson diagonalization with overlap
     ethr =  3.62E-10,  avg # of iterations =  2.0

     total cpu time spent up to now is      156.6 secs

     total energy              =    -159.13683845 Ry
     estimated scf accuracy    <       0.00000001 Ry

     iteration #  9     ecut=    80.00 Ry     beta= 0.70
     Davidson diagonalization with overlap
     ethr =  4.99E-11,  avg # of iterations =  2.1

     total cpu time spent up to now is      162.7 secs

     total energy              =    -159.13683845 Ry
     estimated scf accuracy    <          4.5E-10 Ry

     iteration # 10     ecut=    80.00 Ry     beta= 0.70
     Davidson diagonalization with overlap
     ethr =  1.95E-12,  avg # of iterations =  3.8

     total cpu time spent up to now is      170.3 secs

     End of self-consistent calculation

     Number of k-points >= 100: set verbosity='high' to print the bands.

     the Fermi energy is     3.4094 ev

!    total energy              =    -159.13683845 Ry
     estimated scf accuracy    <          3.6E-12 Ry
     smearing contrib. (-TS)   =      -0.00025709 Ry
     internal energy E=F+TS    =    -159.13658136 Ry

     The total energy is F=E-TS. E is the sum of the following terms:
     one-electron contribution =    -108.68956194 Ry
     hartree contribution      =      66.29406711 Ry
     xc contribution           =     -56.17734223 Ry
     ewald contribution        =     -60.56374430 Ry

     convergence has been achieved in  10 iterations

     Forces acting on atoms (cartesian axes, Ry/au):

     atom    1 type  2   force =     0.00000000    0.00000000    0.00000000
     atom    2 type  1   force =     0.00037828   -0.00037828   -0.00037828
     atom    3 type  1   force =    -0.00037828    0.00037828    0.00037828
     atom    4 type  3   force =    -0.07300498   -0.06133257    0.07300498
     atom    5 type  3   force =     0.07300498    0.06133257   -0.07300498
     atom    6 type  3   force =     0.06133257    0.07300498    0.07300498
     atom    7 type  3   force =    -0.06133257   -0.07300498   -0.07300498
     atom    8 type  3   force =    -0.07300498    0.07300498   -0.06133257
     atom    9 type  3   force =     0.07300498   -0.07300498    0.06133257

     Total force =     0.294156     Total SCF correction =     0.000001


     Computing stress (Cartesian axis) and pressure

          total   stress  (Ry/bohr**3)                   (kbar)     P=      168.96
   0.00114859   0.00006500   0.00006500          168.96        9.56        9.56
   0.00006500   0.00114859  -0.00006500            9.56      168.96       -9.56
   0.00006500  -0.00006500   0.00114859            9.56       -9.56      168.96

     Energy error            =      2.0E+00 Ry
     Gradient error          =      7.3E-02 Ry/Bohr
     Cell gradient error     =      1.7E+02 kbar

     number of scf cycles    =   2
     number of bfgs steps    =   1

     enthalpy           old  =    -157.1511508246 Ry
     enthalpy           new  =    -159.1368384487 Ry

     CASE: enthalpy          _new < enthalpy          _old

     new trust radius        =       0.1074544029 bohr
     new conv_thr            =            1.0E-10 Ry

     new unit-cell volume =    532.86625 a.u.^3 (    78.96263 Ang^3 )
     density =      1.75545 g/cm^3

CELL_PARAMETERS (alat= 11.34000000)
  -0.584083071   0.032388751   0.584083071
  -0.032388751   0.584083071   0.584083071
  -0.584083071   0.584083071   0.032388751

ATOMIC_POSITIONS (crystal)
Cu              -0.0000000000        0.0000000000        0.0000000000
Li               0.2502190959        0.2502190959        0.2502190959
Li               0.7497809041        0.7497809041        0.7497809041
H                0.3089448441       -0.0106676608       -0.0106676608
H                0.6910551559        0.0106676608        0.0106676608
H               -0.0106676608        0.3089448441       -0.0106676608
H                0.0106676608        0.6910551559        0.0106676608
H               -0.0106676608       -0.0106676608        0.3089448441
H                0.0106676608        0.0106676608        0.6910551559



     Writing config-only to output data dir /home/aiden/rtsc_li2cuh6/out/li2cuh6.save/ :
     XML data file
     NEW-OLD atomic charge density approx. for the potential
     New effective cutoffs (rho, wfc):  656.57   65.71

     total cpu time spent up to now is      173.0 secs

     per-process dynamical memory:   143.0 Mb

     Self-consistent Calculation

     iteration #  1     ecut=    80.00 Ry     beta= 0.70
     Davidson diagonalization with overlap
     c_bands:  1 eigenvalues not converged
     ethr =  1.00E-06,  avg # of iterations =  8.6

     total cpu time spent up to now is      188.1 secs

     total energy              =    -159.22076537 Ry
     estimated scf accuracy    <       0.00143177 Ry

     iteration #  2     ecut=    80.00 Ry     beta= 0.70
     Davidson diagonalization with overlap
     ethr =  6.23E-06,  avg # of iterations =  2.0

     total cpu time spent up to now is      194.6 secs

     total energy              =    -159.22041678 Ry
     estimated scf accuracy    <       0.00171066 Ry

     iteration #  3     ecut=    80.00 Ry     beta= 0.70
     Davidson diagonalization with overlap
     ethr =  6.23E-06,  avg # of iterations =  2.0

     total cpu time spent up to now is      201.2 secs

     total energy              =    -159.22082708 Ry
     estimated scf accuracy    <       0.00132031 Ry

     iteration #  4     ecut=    80.00 Ry     beta= 0.70
     Davidson diagonalization with overlap
     ethr =  5.74E-06,  avg # of iterations =  2.0

     total cpu time spent up to now is      207.1 secs

     total energy              =    -159.22100455 Ry
     estimated scf accuracy    <       0.00000246 Ry

     iteration #  5     ecut=    80.00 Ry     beta= 0.70
     Davidson diagonalization with overlap
     ethr =  1.07E-08,  avg # of iterations =  3.2

     total cpu time spent up to now is      214.2 secs

     total energy              =    -159.22100675 Ry
     estimated scf accuracy    <       0.00000051 Ry

     iteration #  6     ecut=    80.00 Ry     beta= 0.70
     Davidson diagonalization with overlap
     ethr =  2.20E-09,  avg # of iterations =  1.9

     total cpu time spent up to now is      220.2 secs

     total energy              =    -159.22100682 Ry
     estimated scf accuracy    <          4.8E-09 Ry

     iteration #  7     ecut=    80.00 Ry     beta= 0.70
     Davidson diagonalization with overlap
     ethr =  2.09E-11,  avg # of iterations =  3.9

     total cpu time spent up to now is      227.9 secs

     total energy              =    -159.22100683 Ry
     estimated scf accuracy    <          1.7E-09 Ry

     iteration #  8     ecut=    80.00 Ry     beta= 0.70
     Davidson diagonalization with overlap
     ethr =  7.36E-12,  avg # of iterations =  1.9

     total cpu time spent up to now is      233.8 secs

     End of self-consistent calculation

     Number of k-points >= 100: set verbosity='high' to print the bands.

     the Fermi energy is     2.8174 ev

!    total energy              =    -159.22100683 Ry
     estimated scf accuracy    <          1.5E-11 Ry
     smearing contrib. (-TS)   =      -0.00009192 Ry
     internal energy E=F+TS    =    -159.22091490 Ry

     The total energy is F=E-TS. E is the sum of the following terms:
     one-electron contribution =    -109.79188013 Ry
     hartree contribution      =      66.67040232 Ry
     xc contribution           =     -56.05544131 Ry
     ewald contribution        =     -60.04399579 Ry

     convergence has been achieved in   8 iterations

     Forces acting on atoms (cartesian axes, Ry/au):

     atom    1 type  2   force =     0.00000000    0.00000000   -0.00000000
     atom    2 type  1   force =     0.00262370   -0.00262370   -0.00262370
     atom    3 type  1   force =    -0.00262370    0.00262370    0.00262370
     atom    4 type  3   force =    -0.04724395   -0.04749602    0.04724395
     atom    5 type  3   force =     0.04724395    0.04749602   -0.04724395
     atom    6 type  3   force =     0.04749602    0.04724395    0.04724395
     atom    7 type  3   force =    -0.04749602   -0.04724395   -0.04724395
     atom    8 type  3   force =    -0.04724395    0.04724395   -0.04749602
     atom    9 type  3   force =     0.04724395   -0.04724395    0.04749602

     Total force =     0.200899     Total SCF correction =     0.000002


     Computing stress (Cartesian axis) and pressure

          total   stress  (Ry/bohr**3)                   (kbar)     P=       98.48
   0.00066946   0.00018143   0.00018143           98.48       26.69       26.69
   0.00018143   0.00066946  -0.00018143           26.69       98.48      -26.69
   0.00018143  -0.00018143   0.00066946           26.69      -26.69       98.48

     Energy error            =      8.4E-02 Ry
     Gradient error          =      4.7E-02 Ry/Bohr
     Cell gradient error     =      9.8E+01 kbar

     number of scf cycles    =   3
     number of bfgs steps    =   2

     enthalpy           old  =    -159.1368384487 Ry
     enthalpy           new  =    -159.2210068253 Ry

     CASE: enthalpy          _new < enthalpy          _old

     new trust radius        =       0.1610503718 bohr
     new conv_thr            =            1.0E-10 Ry

     new unit-cell volume =    569.78618 a.u.^3 (    84.43360 Ang^3 )
     density =      1.64171 g/cm^3

CELL_PARAMETERS (alat= 11.34000000)
  -0.586010427   0.011411770   0.586010427
  -0.011411770   0.586010427   0.586010427
  -0.586010427   0.586010427   0.011411770

ATOMIC_POSITIONS (crystal)
Cu              -0.0000000000        0.0000000000        0.0000000000
Li               0.2496454457        0.2496454457        0.2496454457
Li               0.7503545543        0.7503545543        0.7503545543
H                0.3275493782       -0.0189884250       -0.0189884250
H                0.6724506218        0.0189884250        0.0189884250
H               -0.0189884250        0.3275493782       -0.0189884250
H                0.0189884250        0.6724506218        0.0189884250
H               -0.0189884250       -0.0189884250        0.3275493782
H                0.0189884250        0.0189884250        0.6724506218



     Writing config-only to output data dir /home/aiden/rtsc_li2cuh6/out/li2cuh6.save/ :
     XML data file
     NEW-OLD atomic charge density approx. for the potential
     New effective cutoffs (rho, wfc):  605.30   60.57

     total cpu time spent up to now is      236.7 secs

     per-process dynamical memory:   143.0 Mb

     Self-consistent Calculation

     iteration #  1     ecut=    80.00 Ry     beta= 0.70
     Davidson diagonalization with overlap
     c_bands:  1 eigenvalues not converged
     c_bands:  1 eigenvalues not converged
     c_bands:  1 eigenvalues not converged
     ethr =  1.00E-06,  avg # of iterations = 10.1

     total cpu time spent up to now is      254.1 secs

     total energy              =    -159.30067481 Ry
     estimated scf accuracy    <       0.00263976 Ry

     iteration #  2     ecut=    80.00 Ry     beta= 0.70
     Davidson diagonalization with overlap
     ethr =  1.15E-05,  avg # of iterations =  2.0

     total cpu time spent up to now is      260.4 secs

     total energy              =    -159.30005859 Ry
     estimated scf accuracy    <       0.00291510 Ry

     iteration #  3     ecut=    80.00 Ry     beta= 0.70
     Davidson diagonalization with overlap
     ethr =  1.15E-05,  avg # of iterations =  2.0

     total cpu time spent up to now is      267.0 secs

     total energy              =    -159.30072106 Ry
     estimated scf accuracy    <       0.00304562 Ry

     iteration #  4     ecut=    80.00 Ry     beta= 0.70
     Davidson diagonalization with overlap
     ethr =  1.15E-05,  avg # of iterations =  2.0

     total cpu time spent up to now is      273.0 secs

     total energy              =    -159.30112221 Ry
     estimated scf accuracy    <       0.00000479 Ry

     iteration #  5     ecut=    80.00 Ry     beta= 0.70
     Davidson diagonalization with overlap
     ethr =  2.08E-08,  avg # of iterations =  3.5

     total cpu time spent up to now is      280.5 secs

     total energy              =    -159.30112624 Ry
     estimated scf accuracy    <       0.00000111 Ry

     iteration #  6     ecut=    80.00 Ry     beta= 0.70
     Davidson diagonalization with overlap
     ethr =  4.81E-09,  avg # of iterations =  2.0

     total cpu time spent up to now is      286.8 secs

     total energy              =    -159.30112646 Ry
     estimated scf accuracy    <       0.00000012 Ry

     iteration #  7     ecut=    80.00 Ry     beta= 0.70
     Davidson diagonalization with overlap
     ethr =  5.08E-10,  avg # of iterations =  1.2

     total cpu time spent up to now is      292.4 secs

     total energy              =    -159.30112647 Ry
     estimated scf accuracy    <          2.7E-09 Ry

     iteration #  8     ecut=    80.00 Ry     beta= 0.70
     Davidson diagonalization with overlap
     ethr =  1.19E-11,  avg # of iterations =  3.4

     total cpu time spent up to now is      299.9 secs

     End of self-consistent calculation

     Number of k-points >= 100: set verbosity='high' to print the bands.

     the Fermi energy is     2.1207 ev

!    total energy              =    -159.30112648 Ry
     estimated scf accuracy    <          6.8E-11 Ry
     smearing contrib. (-TS)   =       0.00008511 Ry
     internal energy E=F+TS    =    -159.30121158 Ry

     The total energy is F=E-TS. E is the sum of the following terms:
     one-electron contribution =    -111.19354350 Ry
     hartree contribution      =      67.16880031 Ry
     xc contribution           =     -55.92247204 Ry
     ewald contribution        =     -59.35399636 Ry

     convergence has been achieved in   8 iterations

     Forces acting on atoms (cartesian axes, Ry/au):

     atom    1 type  2   force =    -0.00000000   -0.00000000    0.00000000
     atom    2 type  1   force =     0.00545188   -0.00545188   -0.00545188
     atom    3 type  1   force =    -0.00545188    0.00545188    0.00545188
     atom    4 type  3   force =    -0.02117185   -0.02888719    0.02117185
     atom    5 type  3   force =     0.02117185    0.02888719   -0.02117185
     atom    6 type  3   force =     0.02888719    0.02117185    0.02117185
     atom    7 type  3   force =    -0.02888719   -0.02117185   -0.02117185
     atom    8 type  3   force =    -0.02117185    0.02117185   -0.02888719
     atom    9 type  3   force =     0.02117185   -0.02117185    0.02888719

     Total force =     0.102782     Total SCF correction =     0.000006


     Computing stress (Cartesian axis) and pressure

          total   stress  (Ry/bohr**3)                   (kbar)     P=       31.57
   0.00021461   0.00024261   0.00024261           31.57       35.69       35.69
   0.00024261   0.00021461  -0.00024261           35.69       31.57      -35.69
   0.00024261  -0.00024261   0.00021461           35.69      -35.69       31.57

     Energy error            =      8.0E-02 Ry
     Gradient error          =      2.9E-02 Ry/Bohr
     Cell gradient error     =      3.6E+01 kbar

     number of scf cycles    =   4
     number of bfgs steps    =   3

     enthalpy           old  =    -159.2210068253 Ry
     enthalpy           new  =    -159.3011264758 Ry

     CASE: enthalpy          _new < enthalpy          _old

     new trust radius        =       0.2406230267 bohr
     new conv_thr            =            1.0E-10 Ry

     new unit-cell volume =    612.24031 a.u.^3 (    90.72465 Ang^3 )
     density =      1.52787 g/cm^3

CELL_PARAMETERS (alat= 11.34000000)
  -0.582332130  -0.024479245   0.582332130
   0.024479245   0.582332130   0.582332130
  -0.582332130   0.582332130  -0.024479245

ATOMIC_POSITIONS (crystal)
Cu              -0.0000000000        0.0000000000        0.0000000000
Li               0.2480137759        0.2480137759        0.2480137759
Li               0.7519862241        0.7519862241        0.7519862241
H                0.3539421332       -0.0312389795       -0.0312389795
H                0.6460578668        0.0312389795        0.0312389795
H               -0.0312389795        0.3539421332       -0.0312389795
H                0.0312389795        0.6460578668        0.0312389795
H               -0.0312389795       -0.0312389795        0.3539421332
H                0.0312389795        0.0312389795        0.6460578668



     Writing config-only to output data dir /home/aiden/rtsc_li2cuh6/out/li2cuh6.save/ :
     XML data file
     NEW-OLD atomic charge density approx. for the potential
     New effective cutoffs (rho, wfc):  613.47   61.52

     total cpu time spent up to now is      302.8 secs

     per-process dynamical memory:   143.0 Mb

     Self-consistent Calculation

     iteration #  1     ecut=    80.00 Ry     beta= 0.70
     Davidson diagonalization with overlap
     c_bands:  1 eigenvalues not converged
     c_bands:  1 eigenvalues not converged
     c_bands:  1 eigenvalues not converged
     c_bands:  1 eigenvalues not converged
     c_bands:  1 eigenvalues not converged
     c_bands:  1 eigenvalues not converged
     c_bands:  1 eigenvalues not converged
     c_bands:  1 eigenvalues not converged
     c_bands:  1 eigenvalues not converged
     c_bands:  1 eigenvalues not converged
     c_bands:  1 eigenvalues not converged
     c_bands:  1 eigenvalues not converged
     c_bands:  1 eigenvalues not converged
     c_bands:  1 eigenvalues not converged
     c_bands:  1 eigenvalues not converged
     c_bands:  1 eigenvalues not converged
     c_bands:  1 eigenvalues not converged
     ethr =  1.00E-06,  avg # of iterations = 12.7

     total cpu time spent up to now is      322.0 secs

     total energy              =    -159.35250407 Ry
     estimated scf accuracy    <       0.00459278 Ry

     iteration #  2     ecut=    80.00 Ry     beta= 0.70
     Davidson diagonalization with overlap
     ethr =  2.00E-05,  avg # of iterations =  2.0

     total cpu time spent up to now is      328.2 secs

     total energy              =    -159.35306374 Ry
     estimated scf accuracy    <       0.00016759 Ry

     iteration #  3     ecut=    80.00 Ry     beta= 0.70
     Davidson diagonalization with overlap
     ethr =  7.29E-07,  avg # of iterations =  2.1

     total cpu time spent up to now is      334.4 secs

     total energy              =    -159.35308694 Ry
     estimated scf accuracy    <       0.00001302 Ry

     iteration #  4     ecut=    80.00 Ry     beta= 0.70
     Davidson diagonalization with overlap
     ethr =  5.66E-08,  avg # of iterations =  2.5

     total cpu time spent up to now is      341.6 secs

     total energy              =    -159.35308457 Ry
     estimated scf accuracy    <       0.00003648 Ry

     iteration #  5     ecut=    80.00 Ry     beta= 0.70
     Davidson diagonalization with overlap
     ethr =  5.66E-08,  avg # of iterations =  2.0

     total cpu time spent up to now is      348.4 secs

     total energy              =    -159.35309007 Ry
     estimated scf accuracy    <       0.00000041 Ry

     iteration #  6     ecut=    80.00 Ry     beta= 0.70
     Davidson diagonalization with overlap
     ethr =  1.79E-09,  avg # of iterations =  3.0

     total cpu time spent up to now is      355.3 secs

     total energy              =    -159.35309015 Ry
     estimated scf accuracy    <       0.00000002 Ry

     iteration #  7     ecut=    80.00 Ry     beta= 0.70
     Davidson diagonalization with overlap
     ethr =  1.05E-10,  avg # of iterations =  2.9

     total cpu time spent up to now is      362.1 secs

     total energy              =    -159.35309015 Ry
     estimated scf accuracy    <          4.0E-10 Ry

     iteration #  8     ecut=    80.00 Ry     beta= 0.70
     Davidson diagonalization with overlap
     ethr =  1.74E-12,  avg # of iterations =  2.7

     total cpu time spent up to now is      369.3 secs

     End of self-consistent calculation

     Number of k-points >= 100: set verbosity='high' to print the bands.

     the Fermi energy is     1.3935 ev

!    total energy              =    -159.35309015 Ry
     estimated scf accuracy    <          7.3E-12 Ry
     smearing contrib. (-TS)   =       0.00020262 Ry
     internal energy E=F+TS    =    -159.35329277 Ry

     The total energy is F=E-TS. E is the sum of the following terms:
     one-electron contribution =    -112.70410893 Ry
     hartree contribution      =      67.74674588 Ry
     xc contribution           =     -55.79319811 Ry
     ewald contribution        =     -58.60273160 Ry

     convergence has been achieved in   8 iterations

     Forces acting on atoms (cartesian axes, Ry/au):

     atom    1 type  2   force =    -0.00000000    0.00000000    0.00000000
     atom    2 type  1   force =     0.00820030   -0.00820030   -0.00820030
     atom    3 type  1   force =    -0.00820030    0.00820030    0.00820030
     atom    4 type  3   force =     0.00280425   -0.00334433   -0.00280425
     atom    5 type  3   force =    -0.00280425    0.00334433    0.00280425
     atom    6 type  3   force =     0.00334433   -0.00280425   -0.00280425
     atom    7 type  3   force =    -0.00334433    0.00280425    0.00280425
     atom    8 type  3   force =     0.00280425   -0.00280425   -0.00334433
     atom    9 type  3   force =    -0.00280425    0.00280425    0.00334433

     Total force =     0.023769     Total SCF correction =     0.000001


     Computing stress (Cartesian axis) and pressure

          total   stress  (Ry/bohr**3)                   (kbar)     P=      -24.50
  -0.00016657   0.00021026   0.00021026          -24.50       30.93       30.93
   0.00021026  -0.00016657  -0.00021026           30.93      -24.50      -30.93
   0.00021026  -0.00021026  -0.00016657           30.93      -30.93      -24.50

     Energy error            =      5.2E-02 Ry
     Gradient error          =      8.2E-03 Ry/Bohr
     Cell gradient error     =      3.1E+01 kbar

     number of scf cycles    =   5
     number of bfgs steps    =   4

     enthalpy           old  =    -159.3011264758 Ry
     enthalpy           new  =    -159.3530901523 Ry

     CASE: enthalpy          _new < enthalpy          _old

     new trust radius        =       0.0956532292 bohr
     new conv_thr            =            8.2E-11 Ry

     new unit-cell volume =    616.64100 a.u.^3 (    91.37677 Ang^3 )
     density =      1.51696 g/cm^3

CELL_PARAMETERS (alat= 11.34000000)
  -0.576275019  -0.040318616   0.576275019
   0.040318616   0.576275019   0.576275019
  -0.576275019   0.576275019  -0.040318616

ATOMIC_POSITIONS (crystal)
Cu               0.0000000000        0.0000000000       -0.0000000000
Li               0.2467054392        0.2467054392        0.2467054392
Li               0.7532945608        0.7532945608        0.7532945608
H                0.3617569317       -0.0346462766       -0.0346462766
H                0.6382430683        0.0346462766        0.0346462766
H               -0.0346462766        0.3617569317       -0.0346462766
H                0.0346462766        0.6382430683        0.0346462766
H               -0.0346462766       -0.0346462766        0.3617569317
H                0.0346462766        0.0346462766        0.6382430683



     Writing config-only to output data dir /home/aiden/rtsc_li2cuh6/out/li2cuh6.save/ :
     XML data file
     NEW-OLD atomic charge density approx. for the potential
     New effective cutoffs (rho, wfc):  644.37   64.65

     total cpu time spent up to now is      372.3 secs

     per-process dynamical memory:   143.0 Mb

     Self-consistent Calculation

     iteration #  1     ecut=    80.00 Ry     beta= 0.70
     Davidson diagonalization with overlap
     c_bands:  1 eigenvalues not converged
     c_bands:  1 eigenvalues not converged
     c_bands:  1 eigenvalues not converged
     c_bands:  1 eigenvalues not converged
     c_bands:  1 eigenvalues not converged
     c_bands:  1 eigenvalues not converged
     c_bands:  1 eigenvalues not converged
     ethr =  1.00E-06,  avg # of iterations =  9.2

     total cpu time spent up to now is      387.6 secs

     total energy              =    -159.36060427 Ry
     estimated scf accuracy    <       0.00059501 Ry

     iteration #  2     ecut=    80.00 Ry     beta= 0.70
     Davidson diagonalization with overlap
     ethr =  2.59E-06,  avg # of iterations =  2.1

     total cpu time spent up to now is      394.7 secs

     total energy              =    -159.36040492 Ry
     estimated scf accuracy    <       0.00106590 Ry

     iteration #  3     ecut=    80.00 Ry     beta= 0.70
     Davidson diagonalization with overlap
     ethr =  2.59E-06,  avg # of iterations =  2.0

     total cpu time spent up to now is      401.9 secs

     total energy              =    -159.36065158 Ry
     estimated scf accuracy    <       0.00064908 Ry

     iteration #  4     ecut=    80.00 Ry     beta= 0.70
     Davidson diagonalization with overlap
     ethr =  2.59E-06,  avg # of iterations =  1.5

     total cpu time spent up to now is      407.8 secs

     total energy              =    -159.36072928 Ry
     estimated scf accuracy    <       0.00000158 Ry

     iteration #  5     ecut=    80.00 Ry     beta= 0.70
     Davidson diagonalization with overlap
     ethr =  6.88E-09,  avg # of iterations =  4.3

     total cpu time spent up to now is      416.2 secs

     total energy              =    -159.36073102 Ry
     estimated scf accuracy    <       0.00000082 Ry

     iteration #  6     ecut=    80.00 Ry     beta= 0.70
     Davidson diagonalization with overlap
     ethr =  3.58E-09,  avg # of iterations =  1.5

     total cpu time spent up to now is      421.9 secs

     total energy              =    -159.36073116 Ry
     estimated scf accuracy    <       0.00000003 Ry

     iteration #  7     ecut=    80.00 Ry     beta= 0.70
     Davidson diagonalization with overlap
     ethr =  1.24E-10,  avg # of iterations =  2.6

     total cpu time spent up to now is      428.8 secs

     total energy              =    -159.36073117 Ry
     estimated scf accuracy    <          5.5E-10 Ry

     iteration #  8     ecut=    80.00 Ry     beta= 0.70
     Davidson diagonalization with overlap
     ethr =  2.39E-12,  avg # of iterations =  3.4

     total cpu time spent up to now is      436.3 secs

     End of self-consistent calculation

     Number of k-points >= 100: set verbosity='high' to print the bands.

     the Fermi energy is     1.3215 ev

!    total energy              =    -159.36073117 Ry
     estimated scf accuracy    <          3.3E-11 Ry
     smearing contrib. (-TS)   =       0.00024144 Ry
     internal energy E=F+TS    =    -159.36097261 Ry

     The total energy is F=E-TS. E is the sum of the following terms:
     one-electron contribution =    -113.01445788 Ry
     hartree contribution      =      67.91874548 Ry
     xc contribution           =     -55.78458062 Ry
     ewald contribution        =     -58.48067958 Ry

     convergence has been achieved in   8 iterations

     Forces acting on atoms (cartesian axes, Ry/au):

     atom    1 type  2   force =    -0.00000000    0.00000000    0.00000000
     atom    2 type  1   force =     0.00835847   -0.00835847   -0.00835847
     atom    3 type  1   force =    -0.00835847    0.00835847    0.00835847
     atom    4 type  3   force =     0.00666974    0.00386280   -0.00666974
     atom    5 type  3   force =    -0.00666974   -0.00386280    0.00666974
     atom    6 type  3   force =    -0.00386280   -0.00666974   -0.00666974
     atom    7 type  3   force =     0.00386280    0.00666974    0.00666974
     atom    8 type  3   force =     0.00666974   -0.00666974    0.00386280
     atom    9 type  3   force =    -0.00666974    0.00666974   -0.00386280

     Total force =     0.032288     Total SCF correction =     0.000003


     Computing stress (Cartesian axis) and pressure

          total   stress  (Ry/bohr**3)                   (kbar)     P=      -31.25
  -0.00021246   0.00016536   0.00016536          -31.25       24.33       24.33
   0.00016536  -0.00021246  -0.00016536           24.33      -31.25      -24.33
   0.00016536  -0.00016536  -0.00021246           24.33      -24.33      -31.25

     Energy error            =      7.6E-03 Ry
     Gradient error          =      8.4E-03 Ry/Bohr
     Cell gradient error     =      3.1E+01 kbar

     number of scf cycles    =   6
     number of bfgs steps    =   5

     enthalpy           old  =    -159.3530901523 Ry
     enthalpy           new  =    -159.3607311653 Ry

     CASE: enthalpy          _new < enthalpy          _old

     new trust radius        =       0.1262339104 bohr
     new conv_thr            =            8.4E-11 Ry

     new unit-cell volume =    608.58770 a.u.^3 (    90.18339 Ang^3 )
     density =      1.53704 g/cm^3

CELL_PARAMETERS (alat= 11.34000000)
  -0.564430289  -0.060604757   0.564430289
   0.060604757   0.564430289   0.564430289
  -0.564430289   0.564430289  -0.060604757

ATOMIC_POSITIONS (crystal)
Cu               0.0000000000        0.0000000000       -0.0000000000
Li               0.2443537200        0.2443537200        0.2443537200
Li               0.7556462800        0.7556462800        0.7556462800
H                0.3679929476       -0.0368033332       -0.0368033332
H                0.6320070524        0.0368033332        0.0368033332
H               -0.0368033332        0.3679929476       -0.0368033332
H                0.0368033332        0.6320070524        0.0368033332
H               -0.0368033332       -0.0368033332        0.3679929476
H                0.0368033332        0.0368033332        0.6320070524



     Writing config-only to output data dir /home/aiden/rtsc_li2cuh6/out/li2cuh6.save/ :
     XML data file
     NEW-OLD atomic charge density approx. for the potential
     New effective cutoffs (rho, wfc):  698.10   70.07

     total cpu time spent up to now is      439.3 secs

     per-process dynamical memory:   143.0 Mb

     Self-consistent Calculation

     iteration #  1     ecut=    80.00 Ry     beta= 0.70
     Davidson diagonalization with overlap
     c_bands:  1 eigenvalues not converged
     c_bands:  1 eigenvalues not converged
     c_bands:  1 eigenvalues not converged
     c_bands:  1 eigenvalues not converged
     c_bands:  1 eigenvalues not converged
     c_bands:  1 eigenvalues not converged
     c_bands:  1 eigenvalues not converged
     c_bands:  1 eigenvalues not converged
     c_bands:  1 eigenvalues not converged
     ethr =  1.00E-06,  avg # of iterations =  9.8

     total cpu time spent up to now is      456.1 secs

     total energy              =    -159.36835733 Ry
     estimated scf accuracy    <       0.00088945 Ry

     iteration #  2     ecut=    80.00 Ry     beta= 0.70
     Davidson diagonalization with overlap
     ethr =  3.87E-06,  avg # of iterations =  2.0

     total cpu time spent up to now is      463.2 secs

     total energy              =    -159.36796648 Ry
     estimated scf accuracy    <       0.00268485 Ry

     iteration #  3     ecut=    80.00 Ry     beta= 0.70
     Davidson diagonalization with overlap
     ethr =  3.87E-06,  avg # of iterations =  2.0

     total cpu time spent up to now is      470.3 secs

     total energy              =    -159.36852900 Ry
     estimated scf accuracy    <       0.00054745 Ry

     iteration #  4     ecut=    80.00 Ry     beta= 0.70
     Davidson diagonalization with overlap
     ethr =  2.38E-06,  avg # of iterations =  1.0

     total cpu time spent up to now is      476.3 secs

     total energy              =    -159.36859242 Ry
     estimated scf accuracy    <       0.00000245 Ry

     iteration #  5     ecut=    80.00 Ry     beta= 0.70
     Davidson diagonalization with overlap
     ethr =  1.07E-08,  avg # of iterations =  4.1

     total cpu time spent up to now is      484.8 secs

     total energy              =    -159.36859426 Ry
     estimated scf accuracy    <       0.00000092 Ry

     iteration #  6     ecut=    80.00 Ry     beta= 0.70
     Davidson diagonalization with overlap
     ethr =  4.00E-09,  avg # of iterations =  1.1

     total cpu time spent up to now is      490.8 secs

     total energy              =    -159.36859437 Ry
     estimated scf accuracy    <          5.4E-09 Ry

     iteration #  7     ecut=    80.00 Ry     beta= 0.70
     Davidson diagonalization with overlap
     ethr =  2.37E-11,  avg # of iterations =  4.5

     total cpu time spent up to now is      499.7 secs

     total energy              =    -159.36859438 Ry
     estimated scf accuracy    <          6.8E-09 Ry

     iteration #  8     ecut=    80.00 Ry     beta= 0.70
     Davidson diagonalization with overlap
     ethr =  2.37E-11,  avg # of iterations =  2.0

     total cpu time spent up to now is      506.2 secs

     End of self-consistent calculation

     Number of k-points >= 100: set verbosity='high' to print the bands.

     the Fermi energy is     1.4498 ev

!    total energy              =    -159.36859438 Ry
     estimated scf accuracy    <          3.9E-11 Ry
     smearing contrib. (-TS)   =       0.00026268 Ry
     internal energy E=F+TS    =    -159.36885706 Ry

     The total energy is F=E-TS. E is the sum of the following terms:
     one-electron contribution =    -113.23763141 Ry
     hartree contribution      =      68.13784590 Ry
     xc contribution           =     -55.81609124 Ry
     ewald contribution        =     -58.45298030 Ry

     convergence has been achieved in   8 iterations

     Forces acting on atoms (cartesian axes, Ry/au):

     atom    1 type  2   force =     0.00000000    0.00000000    0.00000000
     atom    2 type  1   force =     0.00709827   -0.00709827   -0.00709827
     atom    3 type  1   force =    -0.00709827    0.00709827    0.00709827
     atom    4 type  3   force =     0.00773919    0.00879565   -0.00773919
     atom    5 type  3   force =    -0.00773919   -0.00879565    0.00773919
     atom    6 type  3   force =    -0.00879565   -0.00773919   -0.00773919
     atom    7 type  3   force =     0.00879565    0.00773919    0.00773919
     atom    8 type  3   force =     0.00773919   -0.00773919    0.00879565
     atom    9 type  3   force =    -0.00773919    0.00773919   -0.00879565

     Total force =     0.038539     Total SCF correction =     0.000001


     Computing stress (Cartesian axis) and pressure

          total   stress  (Ry/bohr**3)                   (kbar)     P=      -27.31
  -0.00018565   0.00008858   0.00008858          -27.31       13.03       13.03
   0.00008858  -0.00018565  -0.00008858           13.03      -27.31      -13.03
   0.00008858  -0.00008858  -0.00018565           13.03      -13.03      -27.31

     Energy error            =      7.9E-03 Ry
     Gradient error          =      8.8E-03 Ry/Bohr
     Cell gradient error     =      2.7E+01 kbar

     number of scf cycles    =   7
     number of bfgs steps    =   6

     enthalpy           old  =    -159.3607311653 Ry
     enthalpy           new  =    -159.3685943765 Ry

     CASE: enthalpy          _new < enthalpy          _old

     new trust radius        =       0.1143978951 bohr
     new conv_thr            =            8.8E-11 Ry

     new unit-cell volume =    589.67011 a.u.^3 (    87.38009 Ang^3 )
     density =      1.58635 g/cm^3

CELL_PARAMETERS (alat= 11.34000000)
  -0.551235646  -0.076584517   0.551235646
   0.076584517   0.551235646   0.551235646
  -0.551235646   0.551235646  -0.076584517

ATOMIC_POSITIONS (crystal)
Cu               0.0000000000        0.0000000000       -0.0000000000
Li               0.2417172639        0.2417172639        0.2417172639
Li               0.7582827361        0.7582827361        0.7582827361
H                0.3689697238       -0.0361744286       -0.0361744286
H                0.6310302762        0.0361744286        0.0361744286
H               -0.0361744286        0.3689697238       -0.0361744286
H                0.0361744286        0.6310302762        0.0361744286
H               -0.0361744286       -0.0361744286        0.3689697238
H                0.0361744286        0.0361744286        0.6310302762



     Writing config-only to output data dir /home/aiden/rtsc_li2cuh6/out/li2cuh6.save/ :
     XML data file
     NEW-OLD atomic charge density approx. for the potential
     New effective cutoffs (rho, wfc):  756.61   75.97

     total cpu time spent up to now is      509.4 secs

     per-process dynamical memory:   143.0 Mb

     Self-consistent Calculation

     iteration #  1     ecut=    80.00 Ry     beta= 0.70
     Davidson diagonalization with overlap
     c_bands:  1 eigenvalues not converged
     c_bands:  1 eigenvalues not converged
     c_bands:  1 eigenvalues not converged
     c_bands:  1 eigenvalues not converged
     c_bands:  1 eigenvalues not converged
     ethr =  1.00E-06,  avg # of iterations =  9.5

     total cpu time spent up to now is      526.1 secs

     total energy              =    -159.37405768 Ry
     estimated scf accuracy    <       0.00093273 Ry

     iteration #  2     ecut=    80.00 Ry     beta= 0.70
     Davidson diagonalization with overlap
     ethr =  4.06E-06,  avg # of iterations =  2.0

     total cpu time spent up to now is      533.2 secs

     total energy              =    -159.37384813 Ry
     estimated scf accuracy    <       0.00094556 Ry

     iteration #  3     ecut=    80.00 Ry     beta= 0.70
     Davidson diagonalization with overlap
     ethr =  4.06E-06,  avg # of iterations =  2.0

     total cpu time spent up to now is      540.1 secs

     total energy              =    -159.37405744 Ry
     estimated scf accuracy    <       0.00132148 Ry

     iteration #  4     ecut=    80.00 Ry     beta= 0.70
     Davidson diagonalization with overlap
     ethr =  4.06E-06,  avg # of iterations =  2.0

     total cpu time spent up to now is      546.3 secs

     total energy              =    -159.37422040 Ry
     estimated scf accuracy    <       0.00000173 Ry

     iteration #  5     ecut=    80.00 Ry     beta= 0.70
     Davidson diagonalization with overlap
     ethr =  7.54E-09,  avg # of iterations =  4.1

     total cpu time spent up to now is      554.2 secs

     total energy              =    -159.37422204 Ry
     estimated scf accuracy    <       0.00000113 Ry

     iteration #  6     ecut=    80.00 Ry     beta= 0.70
     Davidson diagonalization with overlap
     ethr =  4.90E-09,  avg # of iterations =  1.0

     total cpu time spent up to now is      560.1 secs

     total energy              =    -159.37422201 Ry
     estimated scf accuracy    <       0.00000021 Ry

     iteration #  7     ecut=    80.00 Ry     beta= 0.70
     Davidson diagonalization with overlap
     ethr =  8.93E-10,  avg # of iterations =  2.0

     total cpu time spent up to now is      566.8 secs

     total energy              =    -159.37422205 Ry
     estimated scf accuracy    <          8.4E-09 Ry

     iteration #  8     ecut=    80.00 Ry     beta= 0.70
     Davidson diagonalization with overlap
     ethr =  3.65E-11,  avg # of iterations =  3.6

     total cpu time spent up to now is      573.7 secs

     total energy              =    -159.37422205 Ry
     estimated scf accuracy    <          6.4E-10 Ry

     iteration #  9     ecut=    80.00 Ry     beta= 0.70
     Davidson diagonalization with overlap
     ethr =  2.76E-12,  avg # of iterations =  2.2

     total cpu time spent up to now is      579.9 secs

     End of self-consistent calculation

     Number of k-points >= 100: set verbosity='high' to print the bands.

     the Fermi energy is     1.7557 ev

!    total energy              =    -159.37422205 Ry
     estimated scf accuracy    <          2.6E-11 Ry
     smearing contrib. (-TS)   =       0.00024085 Ry
     internal energy E=F+TS    =    -159.37446291 Ry

     The total energy is F=E-TS. E is the sum of the following terms:
     one-electron contribution =    -113.39876546 Ry
     hartree contribution      =      68.38168617 Ry
     xc contribution           =     -55.88495507 Ry
     ewald contribution        =     -58.47242855 Ry

     convergence has been achieved in   9 iterations

     Forces acting on atoms (cartesian axes, Ry/au):

     atom    1 type  2   force =     0.00000000    0.00000000    0.00000000
     atom    2 type  1   force =     0.00366997   -0.00366997   -0.00366997
     atom    3 type  1   force =    -0.00366997    0.00366997    0.00366997
     atom    4 type  3   force =     0.00513331    0.00754741   -0.00513331
     atom    5 type  3   force =    -0.00513331   -0.00754741    0.00513331
     atom    6 type  3   force =    -0.00754741   -0.00513331   -0.00513331
     atom    7 type  3   force =     0.00754741    0.00513331    0.00513331
     atom    8 type  3   force =     0.00513331   -0.00513331    0.00754741
     atom    9 type  3   force =    -0.00513331    0.00513331   -0.00754741

     Total force =     0.027181     Total SCF correction =     0.000003


     Computing stress (Cartesian axis) and pressure

          total   stress  (Ry/bohr**3)                   (kbar)     P=       -9.68
  -0.00006578   0.00000291   0.00000291           -9.68        0.43        0.43
   0.00000291  -0.00006578  -0.00000291            0.43       -9.68       -0.43
   0.00000291  -0.00000291  -0.00006578            0.43       -0.43       -9.68

     Energy error            =      5.6E-03 Ry
     Gradient error          =      7.5E-03 Ry/Bohr
     Cell gradient error     =      9.7E+00 kbar

     number of scf cycles    =   8
     number of bfgs steps    =   7

     enthalpy           old  =    -159.3685943765 Ry
     enthalpy           new  =    -159.3742220530 Ry

     CASE: enthalpy          _new < enthalpy          _old

     new trust radius        =       0.0361994149 bohr
     new conv_thr            =            7.5E-11 Ry

     new unit-cell volume =    580.52952 a.u.^3 (    86.02560 Ang^3 )
     density =      1.61132 g/cm^3

CELL_PARAMETERS (alat= 11.34000000)
  -0.548536169  -0.075806822   0.548536169
   0.075806822   0.548536169   0.548536169
  -0.548536169   0.548536169  -0.075806822

ATOMIC_POSITIONS (crystal)
Cu               0.0000000000        0.0000000000       -0.0000000000
Li               0.2409981953        0.2409981953        0.2409981953
Li               0.7590018047        0.7590018047        0.7590018047
H                0.3649778247       -0.0339596139       -0.0339596139
H                0.6350221753        0.0339596139        0.0339596139
H               -0.0339596139        0.3649778247       -0.0339596139
H                0.0339596139        0.6350221753        0.0339596139
H               -0.0339596139       -0.0339596139        0.3649778247
H                0.0339596139        0.0339596139        0.6350221753



     Writing config-only to output data dir /home/aiden/rtsc_li2cuh6/out/li2cuh6.save/ :
     XML data file
     NEW-OLD atomic charge density approx. for the potential
     New effective cutoffs (rho, wfc):  763.48   76.66

     total cpu time spent up to now is      582.9 secs

     per-process dynamical memory:   143.0 Mb

     Self-consistent Calculation

     iteration #  1     ecut=    80.00 Ry     beta= 0.70
     Davidson diagonalization with overlap
     ethr =  1.00E-06,  avg # of iterations =  6.6

     total cpu time spent up to now is      594.9 secs

     total energy              =    -159.37596389 Ry
     estimated scf accuracy    <       0.00036064 Ry

     iteration #  2     ecut=    80.00 Ry     beta= 0.70
     Davidson diagonalization with overlap
     ethr =  1.57E-06,  avg # of iterations =  2.0

     total cpu time spent up to now is      601.9 secs

     total energy              =    -159.37582205 Ry
     estimated scf accuracy    <       0.00096202 Ry

     iteration #  3     ecut=    80.00 Ry     beta= 0.70
     Davidson diagonalization with overlap
     ethr =  1.57E-06,  avg # of iterations =  2.0

     total cpu time spent up to now is      608.7 secs

     total energy              =    -159.37602960 Ry
     estimated scf accuracy    <       0.00021735 Ry

     iteration #  4     ecut=    80.00 Ry     beta= 0.70
     Davidson diagonalization with overlap
     ethr =  9.45E-07,  avg # of iterations =  1.4

     total cpu time spent up to now is      614.5 secs

     total energy              =    -159.37605646 Ry
     estimated scf accuracy    <       0.00000031 Ry

     iteration #  5     ecut=    80.00 Ry     beta= 0.70
     Davidson diagonalization with overlap
     ethr =  1.36E-09,  avg # of iterations =  4.4

     total cpu time spent up to now is      623.0 secs

     total energy              =    -159.37605689 Ry
     estimated scf accuracy    <       0.00000010 Ry

     iteration #  6     ecut=    80.00 Ry     beta= 0.70
     Davidson diagonalization with overlap
     ethr =  4.53E-10,  avg # of iterations =  1.0

     total cpu time spent up to now is      628.7 secs

     total energy              =    -159.37605689 Ry
     estimated scf accuracy    <          9.1E-09 Ry

     iteration #  7     ecut=    80.00 Ry     beta= 0.70
     Davidson diagonalization with overlap
     ethr =  3.94E-11,  avg # of iterations =  2.1

     total cpu time spent up to now is      635.4 secs

     total energy              =    -159.37605690 Ry
     estimated scf accuracy    <          1.1E-09 Ry

     iteration #  8     ecut=    80.00 Ry     beta= 0.70
     Davidson diagonalization with overlap
     ethr =  4.74E-12,  avg # of iterations =  2.9

     total cpu time spent up to now is      642.1 secs

     End of self-consistent calculation

     Number of k-points >= 100: set verbosity='high' to print the bands.

     the Fermi energy is     1.8983 ev

!    total energy              =    -159.37605690 Ry
     estimated scf accuracy    <          5.1E-12 Ry
     smearing contrib. (-TS)   =       0.00021461 Ry
     internal energy E=F+TS    =    -159.37627150 Ry

     The total energy is F=E-TS. E is the sum of the following terms:
     one-electron contribution =    -113.42082268 Ry
     hartree contribution      =      68.43754895 Ry
     xc contribution           =     -55.91915573 Ry
     ewald contribution        =     -58.47384204 Ry

     convergence has been achieved in   8 iterations

     Forces acting on atoms (cartesian axes, Ry/au):

     atom    1 type  2   force =     0.00000000    0.00000000    0.00000000
     atom    2 type  1   force =     0.00241605   -0.00241605   -0.00241605
     atom    3 type  1   force =    -0.00241605    0.00241605    0.00241605
     atom    4 type  3   force =     0.00132710    0.00246452   -0.00132710
     atom    5 type  3   force =    -0.00132710   -0.00246452    0.00132710
     atom    6 type  3   force =    -0.00246452   -0.00132710   -0.00132710
     atom    7 type  3   force =     0.00246452    0.00132710    0.00132710
     atom    8 type  3   force =     0.00132710   -0.00132710    0.00246452
     atom    9 type  3   force =    -0.00132710    0.00132710   -0.00246452

     Total force =     0.009623     Total SCF correction =     0.000001


     Computing stress (Cartesian axis) and pressure

          total   stress  (Ry/bohr**3)                   (kbar)     P=        2.47
   0.00001677  -0.00000859  -0.00000859            2.47       -1.26       -1.26
  -0.00000859   0.00001677   0.00000859           -1.26        2.47        1.26
  -0.00000859   0.00000859   0.00001677           -1.26        1.26        2.47

     Energy error            =      1.8E-03 Ry
     Gradient error          =      2.5E-03 Ry/Bohr
     Cell gradient error     =      2.5E+00 kbar

     number of scf cycles    =   9
     number of bfgs steps    =   8

     enthalpy           old  =    -159.3742220530 Ry
     enthalpy           new  =    -159.3760568958 Ry

     CASE: enthalpy          _new < enthalpy          _old

     new trust radius        =       0.0165900374 bohr
     new conv_thr            =            2.5E-11 Ry

     new unit-cell volume =    580.65343 a.u.^3 (    86.04396 Ang^3 )
     density =      1.61098 g/cm^3

CELL_PARAMETERS (alat= 11.34000000)
  -0.549687507  -0.073238256   0.549687507
   0.073238256   0.549687507   0.549687507
  -0.549687507   0.549687507  -0.073238256

ATOMIC_POSITIONS (crystal)
Cu               0.0000000000        0.0000000000       -0.0000000000
Li               0.2408633546        0.2408633546        0.2408633546
Li               0.7591366454        0.7591366454        0.7591366454
H                0.3630097159       -0.0330654293       -0.0330654293
H                0.6369902841        0.0330654293        0.0330654293
H               -0.0330654293        0.3630097159       -0.0330654293
H                0.0330654293        0.6369902841        0.0330654293
H               -0.0330654293       -0.0330654293        0.3630097159
H                0.0330654293        0.0330654293        0.6369902841



     Writing config-only to output data dir /home/aiden/rtsc_li2cuh6/out/li2cuh6.save/ :
     XML data file
     NEW-OLD atomic charge density approx. for the potential
     New effective cutoffs (rho, wfc):  756.30   75.93

     total cpu time spent up to now is      645.1 secs

     per-process dynamical memory:   143.0 Mb

     Self-consistent Calculation

     iteration #  1     ecut=    80.00 Ry     beta= 0.70
     Davidson diagonalization with overlap
     c_bands:  1 eigenvalues not converged
     ethr =  1.00E-06,  avg # of iterations =  5.2

     total cpu time spent up to now is      655.2 secs

     total energy              =    -159.37627758 Ry
     estimated scf accuracy    <       0.00004688 Ry

     iteration #  2     ecut=    80.00 Ry     beta= 0.70
     Davidson diagonalization with overlap
     ethr =  2.04E-07,  avg # of iterations =  2.0

     total cpu time spent up to now is      662.0 secs

     total energy              =    -159.37625531 Ry
     estimated scf accuracy    <       0.00019539 Ry

     iteration #  3     ecut=    80.00 Ry     beta= 0.70
     Davidson diagonalization with overlap
     ethr =  2.04E-07,  avg # of iterations =  2.0

     total cpu time spent up to now is      668.8 secs

     total energy              =    -159.37629144 Ry
     estimated scf accuracy    <       0.00001313 Ry

     iteration #  4     ecut=    80.00 Ry     beta= 0.70
     Davidson diagonalization with overlap
     ethr =  5.71E-08,  avg # of iterations =  1.0

     total cpu time spent up to now is      674.4 secs

     total energy              =    -159.37629302 Ry
     estimated scf accuracy    <       0.00000006 Ry

     iteration #  5     ecut=    80.00 Ry     beta= 0.70
     Davidson diagonalization with overlap
     ethr =  2.41E-10,  avg # of iterations =  4.5

     total cpu time spent up to now is      682.8 secs

     total energy              =    -159.37629308 Ry
     estimated scf accuracy    <          5.8E-09 Ry

     iteration #  6     ecut=    80.00 Ry     beta= 0.70
     Davidson diagonalization with overlap
     ethr =  2.51E-11,  avg # of iterations =  2.0

     total cpu time spent up to now is      689.2 secs

     total energy              =    -159.37629308 Ry
     estimated scf accuracy    <          7.3E-10 Ry

     iteration #  7     ecut=    80.00 Ry     beta= 0.70
     Davidson diagonalization with overlap
     ethr =  3.17E-12,  avg # of iterations =  1.7

     total cpu time spent up to now is      695.2 secs

     End of self-consistent calculation

     Number of k-points >= 100: set verbosity='high' to print the bands.

     the Fermi energy is     1.8982 ev

!    total energy              =    -159.37629308 Ry
     estimated scf accuracy    <          8.8E-12 Ry
     smearing contrib. (-TS)   =       0.00020903 Ry
     internal energy E=F+TS    =    -159.37650211 Ry

     The total energy is F=E-TS. E is the sum of the following terms:
     one-electron contribution =    -113.51386390 Ry
     hartree contribution      =      68.46868997 Ry
     xc contribution           =     -55.92098569 Ry
     ewald contribution        =     -58.41034250 Ry

     convergence has been achieved in   7 iterations

     Forces acting on atoms (cartesian axes, Ry/au):

     atom    1 type  2   force =     0.00000000   -0.00000000   -0.00000000
     atom    2 type  1   force =     0.00255163   -0.00255163   -0.00255163
     atom    3 type  1   force =    -0.00255163    0.00255163    0.00255163
     atom    4 type  3   force =     0.00007968    0.00048482   -0.00007968
     atom    5 type  3   force =    -0.00007968   -0.00048482    0.00007968
     atom    6 type  3   force =    -0.00048482   -0.00007968   -0.00007968
     atom    7 type  3   force =     0.00048482    0.00007968    0.00007968
     atom    8 type  3   force =     0.00007968   -0.00007968    0.00048482
     atom    9 type  3   force =    -0.00007968    0.00007968   -0.00048482

     Total force =     0.006368     Total SCF correction =     0.000002


     Computing stress (Cartesian axis) and pressure

          total   stress  (Ry/bohr**3)                   (kbar)     P=        4.01
   0.00002725   0.00000037   0.00000037            4.01        0.05        0.05
   0.00000037   0.00002725  -0.00000037            0.05        4.01       -0.05
   0.00000037  -0.00000037   0.00002725            0.05       -0.05        4.01

     Energy error            =      2.4E-04 Ry
     Gradient error          =      2.6E-03 Ry/Bohr
     Cell gradient error     =      4.0E+00 kbar

     number of scf cycles    =  10
     number of bfgs steps    =   9

     enthalpy           old  =    -159.3760568958 Ry
     enthalpy           new  =    -159.3762930768 Ry

     CASE: enthalpy          _new < enthalpy          _old

     new trust radius        =       0.0073240622 bohr
     new conv_thr            =            2.4E-11 Ry

     new unit-cell volume =    581.88948 a.u.^3 (    86.22712 Ang^3 )
     density =      1.60756 g/cm^3

CELL_PARAMETERS (alat= 11.34000000)
  -0.550199647  -0.073007910   0.550199647
   0.073007910   0.550199647   0.550199647
  -0.550199647   0.550199647  -0.073007910

ATOMIC_POSITIONS (crystal)
Cu               0.0000000000        0.0000000000       -0.0000000000
Li               0.2404999645        0.2404999645        0.2404999645
Li               0.7595000355        0.7595000355        0.7595000355
H                0.3624386951       -0.0327997994       -0.0327997994
H                0.6375613049        0.0327997994        0.0327997994
H               -0.0327997994        0.3624386951       -0.0327997994
H                0.0327997994        0.6375613049        0.0327997994
H               -0.0327997994       -0.0327997994        0.3624386951
H                0.0327997994        0.0327997994        0.6375613049



     Writing config-only to output data dir /home/aiden/rtsc_li2cuh6/out/li2cuh6.save/ :
     XML data file
     NEW-OLD atomic charge density approx. for the potential
     New effective cutoffs (rho, wfc):  754.46   75.75

     total cpu time spent up to now is      698.2 secs

     per-process dynamical memory:   143.0 Mb

     Self-consistent Calculation

     iteration #  1     ecut=    80.00 Ry     beta= 0.70
     Davidson diagonalization with overlap
     ethr =  1.00E-06,  avg # of iterations =  3.0

     Threshold (ethr) on eigenvalues was too large:
     Diagonalizing with lowered threshold

     Davidson diagonalization with overlap
     ethr =  2.91E-08,  avg # of iterations =  3.9

     total cpu time spent up to now is      713.2 secs

     total energy              =    -159.37639215 Ry
     estimated scf accuracy    <       0.00000576 Ry

     iteration #  2     ecut=    80.00 Ry     beta= 0.70
     Davidson diagonalization with overlap
     ethr =  2.51E-08,  avg # of iterations =  2.0

     total cpu time spent up to now is      719.8 secs

     total energy              =    -159.37639287 Ry
     estimated scf accuracy    <       0.00000013 Ry

     iteration #  3     ecut=    80.00 Ry     beta= 0.70
     Davidson diagonalization with overlap
     ethr =  5.49E-10,  avg # of iterations =  2.1

     total cpu time spent up to now is      727.0 secs

     total energy              =    -159.37639287 Ry
     estimated scf accuracy    <       0.00000007 Ry

     iteration #  4     ecut=    80.00 Ry     beta= 0.70
     Davidson diagonalization with overlap
     ethr =  2.87E-10,  avg # of iterations =  2.0

     total cpu time spent up to now is      733.9 secs

     total energy              =    -159.37639287 Ry
     estimated scf accuracy    <       0.00000021 Ry

     iteration #  5     ecut=    80.00 Ry     beta= 0.70
     Davidson diagonalization with overlap
     ethr =  2.87E-10,  avg # of iterations =  2.0

     total cpu time spent up to now is      740.5 secs

     total energy              =    -159.37639290 Ry
     estimated scf accuracy    <          1.2E-10 Ry

     iteration #  6     ecut=    80.00 Ry     beta= 0.70
     Davidson diagonalization with overlap
     ethr =  5.21E-13,  avg # of iterations =  5.1

     total cpu time spent up to now is      749.5 secs

     total energy              =    -159.37639290 Ry
     estimated scf accuracy    <          1.1E-10 Ry

     iteration #  7     ecut=    80.00 Ry     beta= 0.70
     Davidson diagonalization with overlap
     ethr =  4.93E-13,  avg # of iterations =  1.0

     total cpu time spent up to now is      755.4 secs

     End of self-consistent calculation

     Number of k-points >= 100: set verbosity='high' to print the bands.

     the Fermi energy is     1.8838 ev

!    total energy              =    -159.37639290 Ry
     estimated scf accuracy    <          1.9E-11 Ry
     smearing contrib. (-TS)   =       0.00020811 Ry
     internal energy E=F+TS    =    -159.37660101 Ry

     The total energy is F=E-TS. E is the sum of the following terms:
     one-electron contribution =    -113.68726019 Ry
     hartree contribution      =      68.54279227 Ry
     xc contribution           =     -55.92004258 Ry
     ewald contribution        =     -58.31209051 Ry

     convergence has been achieved in   7 iterations

     Forces acting on atoms (cartesian axes, Ry/au):

     atom    1 type  2   force =     0.00000000    0.00000000    0.00000000
     atom    2 type  1   force =     0.00243847   -0.00243847   -0.00243847
     atom    3 type  1   force =    -0.00243847    0.00243847    0.00243847
     atom    4 type  3   force =    -0.00014677   -0.00008266    0.00014677
     atom    5 type  3   force =     0.00014677    0.00008266   -0.00014677
     atom    6 type  3   force =     0.00008266    0.00014677    0.00014677
     atom    7 type  3   force =    -0.00008266   -0.00014677   -0.00014677
     atom    8 type  3   force =    -0.00014677    0.00014677   -0.00008266
     atom    9 type  3   force =     0.00014677   -0.00014677    0.00008266

     Total force =     0.005998     Total SCF correction =     0.000002


     Computing stress (Cartesian axis) and pressure

          total   stress  (Ry/bohr**3)                   (kbar)     P=        3.87
   0.00002631   0.00000077   0.00000077            3.87        0.11        0.11
   0.00000077   0.00002631  -0.00000077            0.11        3.87       -0.11
   0.00000077  -0.00000077   0.00002631            0.11       -0.11        3.87

     Energy error            =      1.0E-04 Ry
     Gradient error          =      2.4E-03 Ry/Bohr
     Cell gradient error     =      3.9E+00 kbar

     number of scf cycles    =  11
     number of bfgs steps    =  10

     enthalpy           old  =    -159.3762930768 Ry
     enthalpy           new  =    -159.3763929010 Ry

     CASE: enthalpy          _new < enthalpy          _old

     new trust radius        =       0.0080663188 bohr
     new conv_thr            =            1.0E-11 Ry

     new unit-cell volume =    583.38431 a.u.^3 (    86.44864 Ang^3 )
     density =      1.60344 g/cm^3

CELL_PARAMETERS (alat= 11.34000000)
  -0.550681588  -0.073044540   0.550681588
   0.073044540   0.550681588   0.550681588
  -0.550681588   0.550681588  -0.073044540

ATOMIC_POSITIONS (crystal)
Cu               0.0000000000        0.0000000000       -0.0000000000
Li               0.2401002353        0.2401002353        0.2401002353
Li               0.7598997647        0.7598997647        0.7598997647
H                0.3620908139       -0.0326475823       -0.0326475823
H                0.6379091861        0.0326475823        0.0326475823
H               -0.0326475823        0.3620908139       -0.0326475823
H                0.0326475823        0.6379091861        0.0326475823
H               -0.0326475823       -0.0326475823        0.3620908139
H                0.0326475823        0.0326475823        0.6379091861



     Writing config-only to output data dir /home/aiden/rtsc_li2cuh6/out/li2cuh6.save/ :
     XML data file
     NEW-OLD atomic charge density approx. for the potential
     New effective cutoffs (rho, wfc):  753.10   75.61

     total cpu time spent up to now is      758.5 secs

     per-process dynamical memory:   143.0 Mb

     Self-consistent Calculation

     iteration #  1     ecut=    80.00 Ry     beta= 0.70
     Davidson diagonalization with overlap
     ethr =  1.00E-06,  avg # of iterations =  3.0

     Threshold (ethr) on eigenvalues was too large:
     Diagonalizing with lowered threshold

     Davidson diagonalization with overlap
     ethr =  1.60E-08,  avg # of iterations =  2.8

     total cpu time spent up to now is      774.2 secs

     total energy              =    -159.37648948 Ry
     estimated scf accuracy    <       0.00000407 Ry

     iteration #  2     ecut=    80.00 Ry     beta= 0.70
     Davidson diagonalization with overlap
     ethr =  1.77E-08,  avg # of iterations =  2.0

     total cpu time spent up to now is      780.8 secs

     total energy              =    -159.37648886 Ry
     estimated scf accuracy    <       0.00000300 Ry

     iteration #  3     ecut=    80.00 Ry     beta= 0.70
     Davidson diagonalization with overlap
     ethr =  1.30E-08,  avg # of iterations =  2.0

     total cpu time spent up to now is      788.0 secs

     total energy              =    -159.37648942 Ry
     estimated scf accuracy    <       0.00000616 Ry

     iteration #  4     ecut=    80.00 Ry     beta= 0.70
     Davidson diagonalization with overlap
     ethr =  1.30E-08,  avg # of iterations =  2.0

     total cpu time spent up to now is      794.4 secs

     total energy              =    -159.37649020 Ry
     estimated scf accuracy    <          4.9E-09 Ry

     iteration #  5     ecut=    80.00 Ry     beta= 0.70
     Davidson diagonalization with overlap
     ethr =  2.12E-11,  avg # of iterations =  4.1

     total cpu time spent up to now is      802.9 secs

     total energy              =    -159.37649021 Ry
     estimated scf accuracy    <          2.6E-09 Ry

     iteration #  6     ecut=    80.00 Ry     beta= 0.70
     Davidson diagonalization with overlap
[...]
     celldm(4)=   0.000000  celldm(5)=   0.000000  celldm(6)=   0.000000

     crystal axes: (cart. coord. in units of alat)
               a(1) = (  -0.560307  -0.066614   0.560307 )  
               a(2) = (   0.066614   0.560307   0.560307 )  
               a(3) = (  -0.560307   0.560307  -0.066614 )  

     reciprocal axes: (cart. coord. in units 2 pi/alat)
               b(1) = ( -0.847954 -0.747143  0.847954 )  
               b(2) = (  0.747143  0.847954  0.847954 )  
               b(3) = ( -0.847954  0.847954 -0.747143 )  


     PseudoPot. # 1 for Li read from file:
     /home/aiden/rtsc_li2cuh6/pseudo/Li.pbe-s-rrkjus_psl.1.0.0.UPF
     MD5 check sum: 4064740962d1d7f158a8c2c63025dc63
     Pseudo is Ultrasoft, Zval =  3.0
     Generated using &quot;atomic&quot; code by A. Dal Corso  v.6.3MaX
     Using radial grid of 1017 points,  4 beta functions with: 
                l(1) =   0
                l(2) =   0
                l(3) =   1
                l(4) =   1
     Q(r) pseudized with 0 coefficients 


     PseudoPot. # 2 for Cu read from file:
     /home/aiden/rtsc_li2cuh6/pseudo/Cu.pbe-dn-rrkjus_psl.1.0.0.UPF
     MD5 check sum: ba3d6c84e19846e79d48cdc68ff7152b
     Pseudo is Ultrasoft + core correction, Zval = 11.0
     Generated using &quot;atomic&quot; code by A. Dal Corso  v.6.3
     Using radial grid of 1199 points,  6 beta functions with: 
                l(1) =   0
                l(2) =   0
                l(3) =   1
                l(4) =   1
                l(5) =   2
                l(6) =   2
     Q(r) pseudized with 0 coefficients 


     PseudoPot. # 3 for H  read from file:
     /home/aiden/rtsc_li2cuh6/pseudo/H.pbe-rrkjus_psl.1.0.0.UPF
     MD5 check sum: 3f4114867bd07edc7f1424d066fc1888
     Pseudo is Ultrasoft, Zval =  1.0
     Generated using &quot;atomic&quot; code by A. Dal Corso  v.6.3MaX
     Using radial grid of  929 points,  2 beta functions with: 
                l(1) =   0
                l(2) =   0
     Q(r) pseudized with 0 coefficients 


     atomic species   valence    mass     pseudopotential
     Li                3.00     6.94100     Li( 1.00)
     Cu               11.00    63.54600     Cu( 1.00)
     H                 1.00     1.00800     H ( 1.00)

     12 Sym. Ops., with inversion, found



   Cartesian axes

     site n.     atom                  positions (alat units)
         1        Cu     tau(   1) = (  -0.0000000  -0.0000000   0.0000000  )
         2        Li     tau(   2) = (  -0.2424413   0.2424413   0.2424413  )
         3        Li     tau(   3) = (  -0.8115598   0.8115598   0.8115598  )
         4        H      tau(   4) = (  -0.1825875  -0.0653103   0.1825875  )
         5        H      tau(   5) = (  -0.3777199  -0.0013034   0.3777199  )
         6        H      tau(   6) = (   0.0653103   0.1825875   0.1825875  )
         7        H      tau(   7) = (   0.0013034   0.3777199   0.3777199  )
         8        H      tau(   8) = (  -0.1825875   0.1825875  -0.0653103  )
         9        H      tau(   9) = (  -0.3777199   0.3777199  -0.0013034  )

     number of k points=   417  Methfessel-Paxton smearing, width (Ry)=  0.0200

     Number of k-points >= 100: set verbosity='high' to print them.

     Dense  grid:   230847 G-vectors     FFT dimensions: (  81,  81,  81)

     Smooth grid:    58449 G-vectors     FFT dimensions: (  54,  54,  54)

     Estimated max dynamical RAM per process >     282.43 MB

     Estimated total dynamical RAM >       1.65 GB

     Initial potential from superposition of free atoms

     starting charge      22.9905, renormalised to      23.0000
     Starting wfcs are   25 randomized atomic wfcs

     total cpu time spent up to now is     1766.7 secs

     per-process dynamical memory:   177.7 Mb

     Self-consistent Calculation

     iteration #  1     ecut=    80.00 Ry     beta= 0.70
     Davidson diagonalization with overlap
     c_bands:  1 eigenvalues not converged
     c_bands:  1 eigenvalues not converged
     c_bands:  1 eigenvalues not converged
     c_bands:  1 eigenvalues not converged
     c_bands:  2 eigenvalues not converged
     c_bands:  2 eigenvalues not converged
     c_bands:  2 eigenvalues not converged
     c_bands:  1 eigenvalues not converged
     c_bands:  1 eigenvalues not converged
     c_bands:  1 eigenvalues not converged
     c_bands:  2 eigenvalues not converged
     c_bands:  2 eigenvalues not converged
     c_bands:  2 eigenvalues not converged
     c_bands:  2 eigenvalues not converged
     c_bands:  1 eigenvalues not converged
     c_bands:  1 eigenvalues not converged
     c_bands:  1 eigenvalues not converged
     c_bands:  1 eigenvalues not converged
     c_bands:  1 eigenvalues not converged
     c_bands:  2 eigenvalues not converged
     c_bands:  2 eigenvalues not converged
     c_bands:  1 eigenvalues not converged
     c_bands:  1 eigenvalues not converged
     c_bands:  1 eigenvalues not converged
     c_bands:  2 eigenvalues not converged
     c_bands:  2 eigenvalues not converged
     c_bands:  2 eigenvalues not converged
     c_bands:  2 eigenvalues not converged
     c_bands:  1 eigenvalues not converged
     c_bands:  1 eigenvalues not converged
     c_bands:  1 eigenvalues not converged
     c_bands:  1 eigenvalues not converged
     c_bands:  1 eigenvalues not converged
     c_bands:  2 eigenvalues not converged
     c_bands:  1 eigenvalues not converged
     c_bands:  1 eigenvalues not converged
     c_bands:  1 eigenvalues not converged
     c_bands:  1 eigenvalues not converged
     c_bands:  1 eigenvalues not converged
     c_bands:  1 eigenvalues not converged
     c_bands:  1 eigenvalues not converged
     c_bands:  1 eigenvalues not converged
     c_bands:  1 eigenvalues not converged
     c_bands:  1 eigenvalues not converged
     c_bands:  1 eigenvalues not converged
     c_bands:  1 eigenvalues not converged
     c_bands:  1 eigenvalues not converged
     c_bands:  1 eigenvalues not converged
     c_bands:  2 eigenvalues not converged
     c_bands:  2 eigenvalues not converged
     c_bands:  1 eigenvalues not converged
     c_bands:  1 eigenvalues not converged
     c_bands:  1 eigenvalues not converged
     c_bands:  1 eigenvalues not converged
     c_bands:  1 eigenvalues not converged
     c_bands:  1 eigenvalues not converged
     c_bands:  2 eigenvalues not converged
     c_bands:  1 eigenvalues not converged
     c_bands:  1 eigenvalues not converged
     c_bands:  1 eigenvalues not converged
     c_bands:  1 eigenvalues not converged
     c_bands:  1 eigenvalues not converged
     c_bands:  1 eigenvalues not converged
     c_bands:  1 eigenvalues not converged
     c_bands:  1 eigenvalues not converged
     c_bands:  1 eigenvalues not converged
     c_bands:  1 eigenvalues not converged
     c_bands:  1 eigenvalues not converged
     c_bands:  1 eigenvalues not converged
     c_bands:  1 eigenvalues not converged
     c_bands:  1 eigenvalues not converged
     c_bands:  1 eigenvalues not converged
     c_bands:  1 eigenvalues not converged
     c_bands:  1 eigenvalues not converged
     c_bands:  1 eigenvalues not converged
     c_bands:  1 eigenvalues not converged
     c_bands:  1 eigenvalues not converged
     c_bands:  1 eigenvalues not converged
     c_bands:  1 eigenvalues not converged
     c_bands:  1 eigenvalues not converged
     c_bands:  1 eigenvalues not converged
     c_bands:  1 eigenvalues not converged
     c_bands:  1 eigenvalues not converged
     c_bands:  1 eigenvalues not converged
     c_bands:  1 eigenvalues not converged
     c_bands:  1 eigenvalues not converged
     c_bands:  1 eigenvalues not converged
     c_bands:  1 eigenvalues not converged
     c_bands:  1 eigenvalues not converged
     c_bands:  1 eigenvalues not converged
     c_bands:  1 eigenvalues not converged
     c_bands:  1 eigenvalues not converged
     c_bands:  2 eigenvalues not converged
     c_bands:  1 eigenvalues not converged
     c_bands:  2 eigenvalues not converged
     c_bands:  1 eigenvalues not converged
     c_bands:  2 eigenvalues not converged
     c_bands:  1 eigenvalues not converged
     c_bands:  1 eigenvalues not converged
     c_bands:  2 eigenvalues not converged
     c_bands:  2 eigenvalues not converged
     c_bands:  1 eigenvalues not converged
     c_bands:  2 eigenvalues not converged
     c_bands:  1 eigenvalues not converged
     c_bands:  1 eigenvalues not converged
     c_bands:  1 eigenvalues not converged
     c_bands:  1 eigenvalues not converged
     c_bands:  1 eigenvalues not converged
     c_bands:  1 eigenvalues not converged
     c_bands:  1 eigenvalues not converged
     c_bands:  1 eigenvalues not converged
     c_bands:  1 eigenvalues not converged
     c_bands:  2 eigenvalues not converged
     c_bands:  2 eigenvalues not converged
     c_bands:  2 eigenvalues not converged
     c_bands:  2 eigenvalues not converged
     c_bands:  1 eigenvalues not converged
     c_bands:  1 eigenvalues not converged
     c_bands:  1 eigenvalues not converged
     c_bands:  1 eigenvalues not converged
     c_bands:  1 eigenvalues not converged
     c_bands:  1 eigenvalues not converged
     c_bands:  1 eigenvalues not converged
     c_bands:  1 eigenvalues not converged
     c_bands:  1 eigenvalues not converged
     c_bands:  1 eigenvalues not converged
     c_bands:  1 eigenvalues not converged
     c_bands:  2 eigenvalues not converged
     c_bands:  2 eigenvalues not converged
     c_bands:  2 eigenvalues not converged
     c_bands:  1 eigenvalues not converged
     c_bands:  1 eigenvalues not converged
     c_bands:  2 eigenvalues not converged
     c_bands:  1 eigenvalues not converged
     c_bands:  2 eigenvalues not converged
     c_bands:  2 eigenvalues not converged
     c_bands:  1 eigenvalues not converged
     c_bands:  2 eigenvalues not converged
     c_bands:  1 eigenvalues not converged
     c_bands:  1 eigenvalues not converged
     c_bands:  1 eigenvalues not converged
     c_bands:  2 eigenvalues not converged
     c_bands:  1 eigenvalues not converged
     c_bands:  1 eigenvalues not converged
     c_bands:  1 eigenvalues not converged
     c_bands:  1 eigenvalues not converged
     c_bands:  1 eigenvalues not converged
     c_bands:  1 eigenvalues not converged
     c_bands:  1 eigenvalues not converged
     c_bands:  1 eigenvalues not converged
     c_bands:  1 eigenvalues not converged
     c_bands:  1 eigenvalues not converged
     c_bands:  1 eigenvalues not converged
     c_bands:  2 eigenvalues not converged
     c_bands:  1 eigenvalues not converged
     c_bands:  1 eigenvalues not converged
     c_bands:  1 eigenvalues not converged
     c_bands:  1 eigenvalues not converged
     c_bands:  1 eigenvalues not converged
     c_bands:  1 eigenvalues not converged
     c_bands:  1 eigenvalues not converged
     c_bands:  1 eigenvalues not converged
     c_bands:  1 eigenvalues not converged
     c_bands:  1 eigenvalues not converged
     c_bands:  1 eigenvalues not converged
     c_bands:  1 eigenvalues not converged
     c_bands:  1 eigenvalues not converged
     c_bands:  1 eigenvalues not converged
     c_bands:  1 eigenvalues not converged
     c_bands:  1 eigenvalues not converged
     c_bands:  1 eigenvalues not converged
     c_bands:  1 eigenvalues not converged
     c_bands:  1 eigenvalues not converged
     c_bands:  1 eigenvalues not converged
     c_bands:  1 eigenvalues not converged
     c_bands:  1 eigenvalues not converged
     c_bands:  1 eigenvalues not converged
     c_bands:  1 eigenvalues not converged
     c_bands:  1 eigenvalues not converged
     c_bands:  1 eigenvalues not converged
     c_bands:  1 eigenvalues not converged
     c_bands:  1 eigenvalues not converged
     c_bands:  1 eigenvalues not converged
     c_bands:  1 eigenvalues not converged
     c_bands:  1 eigenvalues not converged
     c_bands:  1 eigenvalues not converged
     c_bands:  1 eigenvalues not converged
     c_bands:  1 eigenvalues not converged
     ethr =  1.00E-06,  avg # of iterations = 18.2

     total cpu time spent up to now is     1809.3 secs

     total energy              =    -158.71075153 Ry
     estimated scf accuracy    <       1.16181628 Ry

     iteration #  2     ecut=    80.00 Ry     beta= 0.70
     Davidson diagonalization with overlap
     ethr =  5.05E-03,  avg # of iterations =  2.0

     total cpu time spent up to now is     1819.8 secs

     total energy              =    -158.94726431 Ry
     estimated scf accuracy    <       3.90747097 Ry

     iteration #  3     ecut=    80.00 Ry     beta= 0.70
     Davidson diagonalization with overlap
     ethr =  5.05E-03,  avg # of iterations =  2.0

     total cpu time spent up to now is     1829.7 secs

     total energy              =    -159.35073303 Ry
     estimated scf accuracy    <       0.10034282 Ry

     iteration #  4     ecut=    80.00 Ry     beta= 0.70
     Davidson diagonalization with overlap
     ethr =  4.36E-04,  avg # of iterations =  2.0

     total cpu time spent up to now is     1839.7 secs

     total energy              =    -159.37359346 Ry
     estimated scf accuracy    <       0.05018164 Ry

     iteration #  5     ecut=    80.00 Ry     beta= 0.70
     Davidson diagonalization with overlap
     ethr =  2.18E-04,  avg # of iterations =  1.9

     total cpu time spent up to now is     1848.9 secs

     total energy              =    -159.38197839 Ry
     estimated scf accuracy    <       0.00109661 Ry

     iteration #  6     ecut=    80.00 Ry     beta= 0.70
     Davidson diagonalization with overlap
     ethr =  4.77E-06,  avg # of iterations =  4.0

     total cpu time spent up to now is     1860.4 secs

     total energy              =    -159.38232259 Ry
     estimated scf accuracy    <       0.00005282 Ry

     iteration #  7     ecut=    80.00 Ry     beta= 0.70
     Davidson diagonalization with overlap
     ethr =  2.30E-07,  avg # of iterations =  2.8

     total cpu time spent up to now is     1871.0 secs

     total energy              =    -159.38234024 Ry
     estimated scf accuracy    <       0.00000367 Ry

     iteration #  8     ecut=    80.00 Ry     beta= 0.70
     Davidson diagonalization with overlap
     ethr =  1.59E-08,  avg # of iterations =  2.2

     total cpu time spent up to now is     1881.1 secs

     total energy              =    -159.38234124 Ry
     estimated scf accuracy    <       0.00000054 Ry

     iteration #  9     ecut=    80.00 Ry     beta= 0.70
     Davidson diagonalization with overlap
     ethr =  2.35E-09,  avg # of iterations =  2.0

     total cpu time spent up to now is     1890.0 secs

     total energy              =    -159.38234131 Ry
     estimated scf accuracy    <       0.00000003 Ry

     iteration # 10     ecut=    80.00 Ry     beta= 0.70
     Davidson diagonalization with overlap
     ethr =  1.09E-10,  avg # of iterations =  3.6

     total cpu time spent up to now is     1901.4 secs

     total energy              =    -159.38234132 Ry
     estimated scf accuracy    <          8.0E-09 Ry

     iteration # 11     ecut=    80.00 Ry     beta= 0.70
     Davidson diagonalization with overlap
     ethr =  3.49E-11,  avg # of iterations =  1.3

     total cpu time spent up to now is     1909.8 secs

     total energy              =    -159.38234132 Ry
     estimated scf accuracy    <          1.5E-09 Ry

     iteration # 12     ecut=    80.00 Ry     beta= 0.70
     Davidson diagonalization with overlap
     ethr =  6.68E-12,  avg # of iterations =  2.2

     total cpu time spent up to now is     1919.2 secs

     End of self-consistent calculation

     Number of k-points >= 100: set verbosity='high' to print the bands.

     the Fermi energy is     1.4782 ev

!    total energy              =    -159.38234132 Ry
     estimated scf accuracy    <          7.2E-13 Ry
     smearing contrib. (-TS)   =       0.00015806 Ry
     internal energy E=F+TS    =    -159.38249938 Ry

     The total energy is F=E-TS. E is the sum of the following terms:
     one-electron contribution =    -116.60408837 Ry
     hartree contribution      =      69.74817996 Ry
     xc contribution           =     -55.90078291 Ry
     ewald contribution        =     -56.62580805 Ry

     convergence has been achieved in  12 iterations

     Forces acting on atoms (cartesian axes, Ry/au):

     atom    1 type  2   force =    -0.00000000   -0.00000000    0.00000000
     atom    2 type  1   force =     0.00024003   -0.00024003   -0.00024003
     atom    3 type  1   force =    -0.00024003    0.00024003    0.00024003
     atom    4 type  3   force =    -0.00014837   -0.00012403    0.00014837
     atom    5 type  3   force =     0.00014837    0.00012403   -0.00014837
     atom    6 type  3   force =     0.00012403    0.00014837    0.00014837
     atom    7 type  3   force =    -0.00012403   -0.00014837   -0.00014837
     atom    8 type  3   force =    -0.00014837    0.00014837   -0.00012403
     atom    9 type  3   force =     0.00014837   -0.00014837    0.00012403

     Total force =     0.000838     Total SCF correction =     0.000000


     Computing stress (Cartesian axis) and pressure

          total   stress  (Ry/bohr**3)                   (kbar)     P=        4.15
   0.00002823   0.00001237   0.00001237            4.15        1.82        1.82
   0.00001237   0.00002823  -0.00001237            1.82        4.15       -1.82
   0.00001237  -0.00001237   0.00002823            1.82       -1.82        4.15


     Writing all to output data dir /home/aiden/rtsc_li2cuh6/out/li2cuh6.save/ :
     XML data file, charge density, pseudopotentials, collected wavefunctions

     init_run     :      8.95s CPU      9.54s WALL (       2 calls)
     electrons    :   1718.04s CPU   1828.17s WALL (      28 calls)
     update_pot   :      0.85s CPU      0.89s WALL (      26 calls)
     forces       :     14.27s CPU     15.17s WALL (      28 calls)
     stress       :     65.26s CPU     67.87s WALL (      28 calls)

     Called by init_run:
     wfcinit      :      8.10s CPU      8.54s WALL (       2 calls)
     potinit      :      0.21s CPU      0.22s WALL (       2 calls)
     hinit0       :      0.38s CPU      0.40s WALL (       2 calls)

     Called by electrons:
     c_bands      :   1439.71s CPU   1524.16s WALL (     238 calls)
     sum_band     :    259.23s CPU    280.17s WALL (     238 calls)
     v_of_rho     :      5.70s CPU      5.90s WALL (     252 calls)
     newd         :     14.51s CPU     19.46s WALL (     252 calls)
     mix_rho      :      0.43s CPU      0.47s WALL (     238 calls)

     Called by c_bands:
     init_us_2    :     48.22s CPU     50.41s WALL (  222678 calls)
     cegterg      :   1374.89s CPU   1456.97s WALL (   99246 calls)

     Called by *egterg:
     cdiaghg      :     63.78s CPU     66.57s WALL (  366407 calls)
     h_psi        :   1179.17s CPU   1252.83s WALL (  383921 calls)
     s_psi        :     21.51s CPU     22.70s WALL (  383921 calls)
     g_psi        :      7.45s CPU      7.72s WALL (  283841 calls)

     Called by h_psi:
     h_psi:calbec :     52.13s CPU     55.57s WALL (  383921 calls)
     vloc_psi     :   1092.71s CPU   1161.15s WALL (  383921 calls)
                                        0.00s GPU  (  383921 calls)
     add_vuspsi   :     29.53s CPU     31.26s WALL (  383921 calls)

     General routines
     calbec       :     86.89s CPU     91.86s WALL (  681659 calls)
     fft          :      3.18s CPU      3.45s WALL (    3960 calls)
     ffts         :      0.22s CPU      0.23s WALL (     490 calls)
     fftw         :   1199.22s CPU   1274.98s WALL (10224596 calls)
     interpolate  :      0.45s CPU      0.48s WALL (     252 calls)

     Parallel routines

     PWSCF        :  30m 9.87s CPU  32m 4.94s WALL


   This run was terminated on:   0:25: 0  27May2026            

=------------------------------------------------------------------------------=
   JOB DONE.
=------------------------------------------------------------------------------=
