
     Program PHONON v.6.7MaX starts on  1Jun2026 at  0:44:46 

     This program is part of the open-source Quantum ESPRESSO suite
     for quantum simulation of materials; please cite
         "P. Giannozzi et al., J. Phys.:Condens. Matter 21 395502 (2009);
         "P. Giannozzi et al., J. Phys.:Condens. Matter 29 465901 (2017);
          URL http://www.quantum-espresso.org", 
     in publications or presentations arising from this work. More details at
     http://www.quantum-espresso.org/quote

     Parallel version (MPI), running on     9 processors

     MPI processes distributed on     1 nodes
     R & G space division:  proc/nbgrp/npool/nimage =       9
     Reading input from ph.in
     Message from routine ph_restart_set_filename :
     cannot open file for reading or writing
     Message from routine ph_restart_set_filename :
     cannot open file for reading or writing
     Run is not recoverable starting from scratch

     Reading xml data from directory:

     ./out/labeh8.save/
     file La.pbe-spfn-rrkjus_psl.1.0.0.UPF: wavefunction(s)  4F renormalized

     IMPORTANT: XC functional enforced from input :
     Exchange-correlation= PBE
                           (   1   4   3   4   0   0   0)
     Any further DFT definition will be discarded
     Please, verify this is what you really want


     Parallelization info
     --------------------
     sticks:   dense  smooth     PW     G-vecs:    dense   smooth      PW
     Min         437     175     51                19225     4863     773
     Max         438     176     52                19230     4866     775
     Sum        3941    1583    467               173055    43781    6967

     Reading collected, re-writing distributed wavefunctions


     Dynamical matrices for ( 2, 2, 2)  uniform grid of q-points
     (   8 q-points):
       N         xq(1)         xq(2)         xq(3) 
       1   0.000000000   0.000000000   0.000000000
       2   0.337719360  -0.337730998   0.299851238
       3  -0.299894335  -0.337856762  -0.337793210
       4   0.037825025  -0.675587760  -0.037941972
       5   0.337872200   0.299904649  -0.337820286
       6   0.675591561  -0.037826349  -0.037969047
       7   0.037977865  -0.037952113  -0.675613496
       8   0.375697226  -0.375683111  -0.375762258

     Saving dvscf to file. Distribute only q points, not irreducible represetations.

     Calculation of q =    0.0000000   0.0000000   0.0000000

     LaBeH8 electron-phonon 2x2x2 q (RTSC BeH8-family — La variant of AcBeH8 l

     bravais-lattice index     =            0
     lattice parameter (alat)  =       8.2138  a.u.
     unit-cell volume          =     453.3899 (a.u.)^3
     number of atoms/cell      =           10
     number of atomic types    =            3
     kinetic-energy cut-off    =      80.0000  Ry
     charge density cut-off    =     800.0000  Ry
     convergence threshold     =      1.0E-14
     beta                      =       0.3000
     number of iterations used =            4
     Exchange-correlation= PBE
                           (   1   4   3   4   0   0   0)


     celldm(1)=    8.21377  celldm(2)=    0.00000  celldm(3)=    0.00000
     celldm(4)=    0.00000  celldm(5)=    0.00000  celldm(6)=    0.00000

     crystal axes: (cart. coord. in units of alat)
               a(1) = ( -0.7049 -0.0791  0.7049 )  
               a(2) = (  0.0791  0.7049  0.7049 )  
               a(3) = ( -0.7051  0.7051 -0.0792 )  

     reciprocal axes: (cart. coord. in units 2 pi/alat)
               b(1) = ( -0.6757 -0.5998  0.6756 )  
               b(2) = (  0.5998  0.6757  0.6756 )  
               b(3) = ( -0.6754  0.6755 -0.5997 )  


     Atoms inside the unit cell: 

     Cartesian axes

     site n.  atom      mass           positions (alat units)
        1     La 138.9050   tau(    1) = (    0.00000   -0.00000    0.00000  )
        2     Be   9.0122   tau(    2) = (   -0.66544    0.66547    0.66528  )
        3     H    1.0080   tau(    3) = (   -0.29486    0.29487    0.29485  )
        4     H    1.0080   tau(    4) = (    0.29486   -0.29486   -0.29486  )
        5     H    1.0080   tau(    5) = (   -0.72628    0.72633    0.96486  )
        6     H    1.0080   tau(    6) = (   -0.60460    0.60462    0.36571  )
        7     H    1.0080   tau(    7) = (   -0.96501    0.72640    0.72612  )
        8     H    1.0080   tau(    8) = (   -0.36587    0.60456    0.60442  )
        9     H    1.0080   tau(    9) = (   -0.72637    0.96504    0.72615  )
       10     H    1.0080   tau(   10) = (   -0.60452    0.36591    0.60441  )

     Computing dynamical matrix for 
                    q = (   0.0000000   0.0000000   0.0000000 )

      2 Sym.Ops. (with q -> -q+G )


     G cutoff = 1367.1482  (  19228 G-vectors)     FFT grid: ( 75, 75, 75)
     G cutoff =  546.8593  (   4864 G-vectors)  smooth grid: ( 48, 48, 48)

     number of k points=   868  Methfessel-Paxton smearing, width (Ry)=  0.0100

     PseudoPot. # 1 for La read from file:
     ./pseudo/La.pbe-spfn-rrkjus_psl.1.0.0.UPF
     MD5 check sum: e3bc141c2ecb461b8d0a035ce9ac970e
     Pseudo is Ultrasoft + core correction, Zval = 11.0
     Generated using &quot;atomic&quot; code by A. Dal Corso  v.6.2.2
     Using radial grid of 1253 points,  8 beta functions with: 
                l(1) =   0
                l(2) =   0
                l(3) =   1
                l(4) =   1
                l(5) =   2
                l(6) =   2
                l(7) =   3
                l(8) =   3
     Q(r) pseudized with 0 coefficients 


     PseudoPot. # 2 for Be read from file:
     ./pseudo/Be.pbe-n-rrkjus_psl.1.0.0.UPF
     MD5 check sum: 4cdd19bfc6f73cbf9d5a541ec8c1e79e
     Pseudo is Ultrasoft + core correction, Zval =  2.0
     Generated using &quot;atomic&quot; code by A. Dal Corso  v.6.3MaX
     Using radial grid of 1041 points,  4 beta functions with: 
                l(1) =   0
                l(2) =   0
                l(3) =   1
                l(4) =   1
     Q(r) pseudized with 0 coefficients 


     PseudoPot. # 3 for H  read from file:
     ./pseudo/H.pbe-rrkjus_psl.1.0.0.UPF
     MD5 check sum: 3f4114867bd07edc7f1424d066fc1888
     Pseudo is Ultrasoft, Zval =  1.0
     Generated using &quot;atomic&quot; code by A. Dal Corso  v.6.3MaX
     Using radial grid of  929 points,  2 beta functions with: 
                l(1) =   0
                l(2) =   0
     Q(r) pseudized with 0 coefficients 


     Mode symmetry, C_1 (1)     point group:


     Atomic displacements:
     There are   30 irreducible representations

     Representation     1      1 modes -  To be done

     Representation     2      1 modes -  To be done

     Representation     3      1 modes -  To be done

     Representation     4      1 modes -  To be done

     Representation     5      1 modes -  To be done

     Representation     6      1 modes -  To be done

     Representation     7      1 modes -  To be done

     Representation     8      1 modes -  To be done

     Representation     9      1 modes -  To be done

     Representation    10      1 modes -  To be done

     Representation    11      1 modes -  To be done

     Representation    12      1 modes -  To be done

     Representation    13      1 modes -  To be done

     Representation    14      1 modes -  To be done

     Representation    15      1 modes -  To be done

     Representation    16      1 modes -  To be done

     Representation    17      1 modes -  To be done

     Representation    18      1 modes -  To be done

     Representation    19      1 modes -  To be done

     Representation    20      1 modes -  To be done

     Representation    21      1 modes -  To be done

     Representation    22      1 modes -  To be done

     Representation    23      1 modes -  To be done

     Representation    24      1 modes -  To be done

     Representation    25      1 modes -  To be done

     Representation    26      1 modes -  To be done

     Representation    27      1 modes -  To be done

     Representation    28      1 modes -  To be done

     Representation    29      1 modes -  To be done

     Representation    30      1 modes -  To be done



     Alpha used in Ewald sum =   2.8000
     PHONON       :     42.73s CPU     45.88s WALL



     Representation #   1 mode #   1

     Self-consistent Calculation

     Pert. #  1: Fermi energy shift (Ry) =    -4.7889E-07    -4.2352E-22

      iter #   1 total cpu time :    82.5 secs   av.it.:  10.8
      thresh= 1.000E-02 alpha_mix =  0.300 |ddv_scf|^2 =  9.145E-07

     Pert. #  1: Fermi energy shift (Ry) =    -1.2219E-07    -3.3087E-24

      iter #   2 total cpu time :   134.7 secs   av.it.:  18.2
      thresh= 9.563E-05 alpha_mix =  0.300 |ddv_scf|^2 =  6.705E-08

     Pert. #  1: Fermi energy shift (Ry) =    -6.3482E-08     8.2718E-25

      iter #   3 total cpu time :   187.1 secs   av.it.:  18.4
      thresh= 2.589E-05 alpha_mix =  0.300 |ddv_scf|^2 =  1.125E-08

     Pert. #  1: Fermi energy shift (Ry) =    -7.6888E-08    -4.1359E-25

      iter #   4 total cpu time :   240.4 secs   av.it.:  18.8
      thresh= 1.061E-05 alpha_mix =  0.300 |ddv_scf|^2 =  1.230E-09

     Pert. #  1: Fermi energy shift (Ry) =    -7.6425E-08    -2.0680E-25

      iter #   5 total cpu time :   293.3 secs   av.it.:  18.7
      thresh= 3.507E-06 alpha_mix =  0.300 |ddv_scf|^2 =  1.369E-10

     Pert. #  1: Fermi energy shift (Ry) =    -7.3310E-08     5.1699E-26

      iter #   6 total cpu time :   346.7 secs   av.it.:  19.0
      thresh= 1.170E-06 alpha_mix =  0.300 |ddv_scf|^2 =  2.519E-12

     Pert. #  1: Fermi energy shift (Ry) =    -7.2671E-08     2.0680E-25

      iter #   7 total cpu time :   398.7 secs   av.it.:  18.4
      thresh= 1.587E-07 alpha_mix =  0.300 |ddv_scf|^2 =  4.472E-13

     Pert. #  1: Fermi energy shift (Ry) =    -7.2401E-08     2.0680E-25

      iter #   8 total cpu time :   451.1 secs   av.it.:  18.5
      thresh= 6.688E-08 alpha_mix =  0.300 |ddv_scf|^2 =  5.642E-14

     Pert. #  1: Fermi energy shift (Ry) =    -7.2399E-08     2.0680E-25

      iter #   9 total cpu time :   504.2 secs   av.it.:  18.7
      thresh= 2.375E-08 alpha_mix =  0.300 |ddv_scf|^2 =  4.295E-15

     End of self-consistent calculation

     Convergence has been achieved 


     Representation #   2 mode #   2

     Self-consistent Calculation

     Pert. #  1: Fermi energy shift (Ry) =     7.7934E-06     0.0000E+00

      iter #   1 total cpu time :   545.0 secs   av.it.:  10.8
      thresh= 1.000E-02 alpha_mix =  0.300 |ddv_scf|^2 =  9.146E-07

     Pert. #  1: Fermi energy shift (Ry) =     8.6398E-07     0.0000E+00

      iter #   2 total cpu time :   596.9 secs   av.it.:  18.2
      thresh= 9.564E-05 alpha_mix =  0.300 |ddv_scf|^2 =  6.705E-08

     Pert. #  1: Fermi energy shift (Ry) =     9.0304E-08     0.0000E+00

      iter #   3 total cpu time :   649.1 secs   av.it.:  18.4
      thresh= 2.589E-05 alpha_mix =  0.300 |ddv_scf|^2 =  1.126E-08

     Pert. #  1: Fermi energy shift (Ry) =     2.4262E-07     0.0000E+00

      iter #   4 total cpu time :   702.4 secs   av.it.:  18.8
      thresh= 1.061E-05 alpha_mix =  0.300 |ddv_scf|^2 =  1.231E-09

     Pert. #  1: Fermi energy shift (Ry) =     1.7573E-07     0.0000E+00

      iter #   5 total cpu time :   757.0 secs   av.it.:  18.6
      thresh= 3.508E-06 alpha_mix =  0.300 |ddv_scf|^2 =  1.371E-10

     Pert. #  1: Fermi energy shift (Ry) =     9.7401E-08     0.0000E+00

      iter #   6 total cpu time :   811.4 secs   av.it.:  19.0
      thresh= 1.171E-06 alpha_mix =  0.300 |ddv_scf|^2 =  2.517E-12

     Pert. #  1: Fermi energy shift (Ry) =     9.3679E-08     0.0000E+00

      iter #   7 total cpu time :   865.0 secs   av.it.:  18.4
      thresh= 1.586E-07 alpha_mix =  0.300 |ddv_scf|^2 =  4.469E-13

     Pert. #  1: Fermi energy shift (Ry) =     9.4266E-08     0.0000E+00

      iter #   8 total cpu time :   919.1 secs   av.it.:  18.5
      thresh= 6.685E-08 alpha_mix =  0.300 |ddv_scf|^2 =  5.632E-14

     Pert. #  1: Fermi energy shift (Ry) =     9.6356E-08     0.0000E+00

      iter #   9 total cpu time :   973.6 secs   av.it.:  18.7
      thresh= 2.373E-08 alpha_mix =  0.300 |ddv_scf|^2 =  4.282E-15

     End of self-consistent calculation

     Convergence has been achieved 


     Representation #   3 mode #   3

     Self-consistent Calculation

     Pert. #  1: Fermi energy shift (Ry) =    -8.5811E-06     8.4703E-22

      iter #   1 total cpu time :  1013.9 secs   av.it.:  10.8
      thresh= 1.000E-02 alpha_mix =  0.300 |ddv_scf|^2 =  9.142E-07

     Pert. #  1: Fermi energy shift (Ry) =    -9.5982E-07     6.6174E-24

      iter #   2 total cpu time :  1067.1 secs   av.it.:  18.2
      thresh= 9.561E-05 alpha_mix =  0.300 |ddv_scf|^2 =  6.707E-08

     Pert. #  1: Fermi energy shift (Ry) =    -1.2340E-07    -4.1359E-25

      iter #   3 total cpu time :  1120.0 secs   av.it.:  18.4
      thresh= 2.590E-05 alpha_mix =  0.300 |ddv_scf|^2 =  1.125E-08

     Pert. #  1: Fermi energy shift (Ry) =    -2.8199E-07     4.1359E-25

      iter #   4 total cpu time :  1173.3 secs   av.it.:  18.8
      thresh= 1.061E-05 alpha_mix =  0.300 |ddv_scf|^2 =  1.224E-09

     Pert. #  1: Fermi energy shift (Ry) =    -2.0840E-07     2.0680E-25

      iter #   5 total cpu time :  1226.0 secs   av.it.:  18.6
      thresh= 3.499E-06 alpha_mix =  0.300 |ddv_scf|^2 =  1.359E-10

     Pert. #  1: Fermi energy shift (Ry) =    -1.2413E-07    -1.0340E-25

      iter #   6 total cpu time :  1279.4 secs   av.it.:  19.0
      thresh= 1.166E-06 alpha_mix =  0.300 |ddv_scf|^2 =  2.529E-12

     Pert. #  1: Fermi energy shift (Ry) =    -1.1958E-07    -2.0680E-25

      iter #   7 total cpu time :  1333.1 secs   av.it.:  18.4
      thresh= 1.590E-07 alpha_mix =  0.300 |ddv_scf|^2 =  4.489E-13

     Pert. #  1: Fermi energy shift (Ry) =    -1.1987E-07    -1.0340E-25

      iter #   8 total cpu time :  1385.6 secs   av.it.:  18.5
      thresh= 6.700E-08 alpha_mix =  0.300 |ddv_scf|^2 =  5.686E-14

     Pert. #  1: Fermi energy shift (Ry) =    -1.2190E-07    -1.0340E-25

      iter #   9 total cpu time :  1440.4 secs   av.it.:  18.7
      thresh= 2.385E-08 alpha_mix =  0.300 |ddv_scf|^2 =  4.353E-15

     End of self-consistent calculation

     Convergence has been achieved 


     Representation #   4 mode #   4

     Self-consistent Calculation

     Pert. #  1: Fermi energy shift (Ry) =     2.4948E-07     3.3881E-21

      iter #   1 total cpu time :  1471.5 secs   av.it.:   7.0
      thresh= 1.000E-02 alpha_mix =  0.300 |ddv_scf|^2 =  6.830E-08

     Pert. #  1: Fermi energy shift (Ry) =     2.7231E-07     3.3087E-24

      iter #   2 total cpu time :  1522.0 secs   av.it.:  17.7
      thresh= 2.613E-05 alpha_mix =  0.300 |ddv_scf|^2 =  3.062E-09

     Pert. #  1: Fermi energy shift (Ry) =     2.3912E-07    -2.5849E-26

      iter #   3 total cpu time :  1571.5 secs   av.it.:  17.3
      thresh= 5.533E-06 alpha_mix =  0.300 |ddv_scf|^2 =  9.745E-10

     Pert. #  1: Fermi energy shift (Ry) =     2.1841E-07    -5.1699E-26

      iter #   4 total cpu time :  1620.7 secs   av.it.:  17.2
      thresh= 3.122E-06 alpha_mix =  0.300 |ddv_scf|^2 =  1.640E-10

     Pert. #  1: Fermi energy shift (Ry) =     2.1185E-07    -4.1359E-25

      iter #   5 total cpu time :  1669.5 secs   av.it.:  16.5
      thresh= 1.281E-06 alpha_mix =  0.300 |ddv_scf|^2 =  9.166E-12

     Pert. #  1: Fermi energy shift (Ry) =     2.1373E-07    -1.0340E-25

      iter #   6 total cpu time :  1724.3 secs   av.it.:  18.7
      thresh= 3.028E-07 alpha_mix =  0.300 |ddv_scf|^2 =  6.091E-14

     Pert. #  1: Fermi energy shift (Ry) =     2.1403E-07    -1.0340E-25

      iter #   7 total cpu time :  1773.8 secs   av.it.:  17.3
      thresh= 2.468E-08 alpha_mix =  0.300 |ddv_scf|^2 =  2.350E-14

     Pert. #  1: Fermi energy shift (Ry) =     2.1445E-07    -1.0340E-25

      iter #   8 total cpu time :  1827.1 secs   av.it.:  18.8
      thresh= 1.533E-08 alpha_mix =  0.300 |ddv_scf|^2 =  9.243E-16

     End of self-consistent calculation

     Convergence has been achieved 


     Representation #   5 mode #   5

     Self-consistent Calculation

     Pert. #  1: Fermi energy shift (Ry) =    -5.6987E-06     0.0000E+00

      iter #   1 total cpu time :  1857.3 secs   av.it.:   7.0
      thresh= 1.000E-02 alpha_mix =  0.300 |ddv_scf|^2 =  6.831E-08

     Pert. #  1: Fermi energy shift (Ry) =    -3.5508E-06     0.0000E+00

      iter #   2 total cpu time :  1909.1 secs   av.it.:  17.7
      thresh= 2.614E-05 alpha_mix =  0.300 |ddv_scf|^2 =  3.061E-09

     Pert. #  1: Fermi energy shift (Ry) =    -3.0453E-06     0.0000E+00

      iter #   3 total cpu time :  1960.0 secs   av.it.:  17.3
      thresh= 5.533E-06 alpha_mix =  0.300 |ddv_scf|^2 =  9.746E-10

     Pert. #  1: Fermi energy shift (Ry) =    -2.7528E-06     0.0000E+00

      iter #   4 total cpu time :  2009.2 secs   av.it.:  17.2
      thresh= 3.122E-06 alpha_mix =  0.300 |ddv_scf|^2 =  1.640E-10

     Pert. #  1: Fermi energy shift (Ry) =    -2.6697E-06     0.0000E+00

      iter #   5 total cpu time :  2056.6 secs   av.it.:  16.5
      thresh= 1.281E-06 alpha_mix =  0.300 |ddv_scf|^2 =  9.164E-12

     Pert. #  1: Fermi energy shift (Ry) =    -2.7016E-06     0.0000E+00

      iter #   6 total cpu time :  2111.2 secs   av.it.:  18.7
      thresh= 3.027E-07 alpha_mix =  0.300 |ddv_scf|^2 =  6.090E-14

     Pert. #  1: Fermi energy shift (Ry) =    -2.7054E-06     0.0000E+00

      iter #   7 total cpu time :  2162.2 secs   av.it.:  17.3
      thresh= 2.468E-08 alpha_mix =  0.300 |ddv_scf|^2 =  2.350E-14

     Pert. #  1: Fermi energy shift (Ry) =    -2.7111E-06     0.0000E+00

      iter #   8 total cpu time :  2215.5 secs   av.it.:  18.8
      thresh= 1.533E-08 alpha_mix =  0.300 |ddv_scf|^2 =  9.240E-16

     End of self-consistent calculation

     Convergence has been achieved 


     Representation #   6 mode #   6

     Self-consistent Calculation

     Pert. #  1: Fermi energy shift (Ry) =     6.3500E-06    -3.3881E-21

      iter #   1 total cpu time :  2246.7 secs   av.it.:   7.0
      thresh= 1.000E-02 alpha_mix =  0.300 |ddv_scf|^2 =  6.823E-08

     Pert. #  1: Fermi energy shift (Ry) =     3.8480E-06    -3.3087E-24

      iter #   2 total cpu time :  2297.0 secs   av.it.:  17.6
      thresh= 2.612E-05 alpha_mix =  0.300 |ddv_scf|^2 =  3.063E-09

     Pert. #  1: Fermi energy shift (Ry) =     3.3045E-06    -2.0680E-25

      iter #   3 total cpu time :  2346.5 secs   av.it.:  17.3
      thresh= 5.535E-06 alpha_mix =  0.300 |ddv_scf|^2 =  9.739E-10

     Pert. #  1: Fermi energy shift (Ry) =     2.9859E-06     1.0340E-25

      iter #   4 total cpu time :  2395.7 secs   av.it.:  17.2
      thresh= 3.121E-06 alpha_mix =  0.300 |ddv_scf|^2 =  1.641E-10

     Pert. #  1: Fermi energy shift (Ry) =     2.8934E-06     4.1359E-25

      iter #   5 total cpu time :  2443.1 secs   av.it.:  16.5
      thresh= 1.281E-06 alpha_mix =  0.300 |ddv_scf|^2 =  9.175E-12

     Pert. #  1: Fermi energy shift (Ry) =     2.9275E-06     5.1699E-26

      iter #   6 total cpu time :  2496.2 secs   av.it.:  18.7
      thresh= 3.029E-07 alpha_mix =  0.300 |ddv_scf|^2 =  6.098E-14

     Pert. #  1: Fermi energy shift (Ry) =     2.9319E-06     5.1699E-26

      iter #   7 total cpu time :  2546.7 secs   av.it.:  17.3
      thresh= 2.469E-08 alpha_mix =  0.300 |ddv_scf|^2 =  2.352E-14

     Pert. #  1: Fermi energy shift (Ry) =     2.9381E-06     5.1699E-26

      iter #   8 total cpu time :  2599.7 secs   av.it.:  18.8
      thresh= 1.534E-08 alpha_mix =  0.300 |ddv_scf|^2 =  9.258E-16

     End of self-consistent calculation

     Convergence has been achieved 


     Representation #   7 mode #   7

     Self-consistent Calculation

     Pert. #  1: Fermi energy shift (Ry) =     1.8213E-04     4.2352E-22

      iter #   1 total cpu time :  2627.1 secs   av.it.:   5.6
      thresh= 1.000E-02 alpha_mix =  0.300 |ddv_scf|^2 =  9.018E-09

     Pert. #  1: Fermi energy shift (Ry) =    -2.0381E-03     4.1359E-25

      iter #   2 total cpu time :  2679.7 secs   av.it.:  18.5
      thresh= 9.496E-06 alpha_mix =  0.300 |ddv_scf|^2 =  1.879E-09

     Pert. #  1: Fermi energy shift (Ry) =    -2.7888E-03    -4.1359E-25

      iter #   3 total cpu time :  2733.9 secs   av.it.:  18.7
      thresh= 4.335E-06 alpha_mix =  0.300 |ddv_scf|^2 =  1.286E-10

     Pert. #  1: Fermi energy shift (Ry) =    -2.6770E-03    -1.2925E-26

      iter #   4 total cpu time :  2787.8 secs   av.it.:  19.0
      thresh= 1.134E-06 alpha_mix =  0.300 |ddv_scf|^2 =  1.503E-11

     Pert. #  1: Fermi energy shift (Ry) =    -2.3874E-03    -2.5849E-26

      iter #   5 total cpu time :  2842.9 secs   av.it.:  19.1
      thresh= 3.877E-07 alpha_mix =  0.300 |ddv_scf|^2 =  1.820E-12

     Pert. #  1: Fermi energy shift (Ry) =    -2.2047E-03    -6.4623E-27

      iter #   6 total cpu time :  2900.0 secs   av.it.:  19.6
      thresh= 1.349E-07 alpha_mix =  0.300 |ddv_scf|^2 =  1.279E-13

     Pert. #  1: Fermi energy shift (Ry) =    -2.1806E-03    -1.2925E-26

      iter #   7 total cpu time :  2953.5 secs   av.it.:  18.9
      thresh= 3.576E-08 alpha_mix =  0.300 |ddv_scf|^2 =  2.505E-14

     Pert. #  1: Fermi energy shift (Ry) =    -2.1795E-03    -6.4623E-27

      iter #   8 total cpu time :  3008.3 secs   av.it.:  19.3
      thresh= 1.583E-08 alpha_mix =  0.300 |ddv_scf|^2 =  2.063E-15

     End of self-consistent calculation

     Convergence has been achieved 


     Representation #   8 mode #   8

     Self-consistent Calculation

     Pert. #  1: Fermi energy shift (Ry) =    -1.8344E-04     0.0000E+00

      iter #   1 total cpu time :  3035.0 secs   av.it.:   5.6
      thresh= 1.000E-02 alpha_mix =  0.300 |ddv_scf|^2 =  9.020E-09

     Pert. #  1: Fermi energy shift (Ry) =     2.0372E-03     0.0000E+00

      iter #   2 total cpu time :  3089.3 secs   av.it.:  18.5
      thresh= 9.497E-06 alpha_mix =  0.300 |ddv_scf|^2 =  1.879E-09

     Pert. #  1: Fermi energy shift (Ry) =     2.7880E-03     0.0000E+00

      iter #   3 total cpu time :  3142.4 secs   av.it.:  18.7
      thresh= 4.335E-06 alpha_mix =  0.300 |ddv_scf|^2 =  1.286E-10

     Pert. #  1: Fermi energy shift (Ry) =     2.6761E-03     0.0000E+00

      iter #   4 total cpu time :  3196.3 secs   av.it.:  19.0
      thresh= 1.134E-06 alpha_mix =  0.300 |ddv_scf|^2 =  1.503E-11

     Pert. #  1: Fermi energy shift (Ry) =     2.3866E-03     0.0000E+00

      iter #   5 total cpu time :  3250.3 secs   av.it.:  19.1
      thresh= 3.876E-07 alpha_mix =  0.300 |ddv_scf|^2 =  1.820E-12

     Pert. #  1: Fermi energy shift (Ry) =     2.2038E-03     0.0000E+00

      iter #   6 total cpu time :  3305.6 secs   av.it.:  19.6
      thresh= 1.349E-07 alpha_mix =  0.300 |ddv_scf|^2 =  1.278E-13

     Pert. #  1: Fermi energy shift (Ry) =     2.1798E-03     0.0000E+00

      iter #   7 total cpu time :  3358.8 secs   av.it.:  18.9
      thresh= 3.576E-08 alpha_mix =  0.300 |ddv_scf|^2 =  2.507E-14

     Pert. #  1: Fermi energy shift (Ry) =     2.1787E-03     0.0000E+00

      iter #   8 total cpu time :  3413.2 secs   av.it.:  19.3
      thresh= 1.583E-08 alpha_mix =  0.300 |ddv_scf|^2 =  2.064E-15

     End of self-consistent calculation

     Convergence has been achieved 


     Representation #   9 mode #   9

     Self-consistent Calculation

     Pert. #  1: Fermi energy shift (Ry) =    -1.7482E-04    -4.2352E-22

      iter #   1 total cpu time :  3440.7 secs   av.it.:   5.6
      thresh= 1.000E-02 alpha_mix =  0.300 |ddv_scf|^2 =  9.011E-09

     Pert. #  1: Fermi energy shift (Ry) =     2.0424E-03     2.5849E-26

      iter #   2 total cpu time :  3494.9 secs   av.it.:  18.5
      thresh= 9.493E-06 alpha_mix =  0.300 |ddv_scf|^2 =  1.880E-09

     Pert. #  1: Fermi energy shift (Ry) =     2.7937E-03     4.1359E-25

      iter #   3 total cpu time :  3548.7 secs   av.it.:  18.7
      thresh= 4.335E-06 alpha_mix =  0.300 |ddv_scf|^2 =  1.282E-10

     Pert. #  1: Fermi energy shift (Ry) =     2.6816E-03    -6.4623E-27

      iter #   4 total cpu time :  3602.5 secs   av.it.:  19.0
      thresh= 1.132E-06 alpha_mix =  0.300 |ddv_scf|^2 =  1.502E-11

     Pert. #  1: Fermi energy shift (Ry) =     2.3920E-03     2.5849E-26

      iter #   5 total cpu time :  3658.3 secs   av.it.:  19.1
      thresh= 3.876E-07 alpha_mix =  0.300 |ddv_scf|^2 =  1.816E-12

     Pert. #  1: Fermi energy shift (Ry) =     2.2094E-03     1.2925E-26

      iter #   6 total cpu time :  3714.6 secs   av.it.:  19.6
      thresh= 1.347E-07 alpha_mix =  0.300 |ddv_scf|^2 =  1.279E-13

     Pert. #  1: Fermi energy shift (Ry) =     2.1852E-03     2.5849E-26

      iter #   7 total cpu time :  3768.9 secs   av.it.:  18.9
      thresh= 3.576E-08 alpha_mix =  0.300 |ddv_scf|^2 =  2.500E-14

     Pert. #  1: Fermi energy shift (Ry) =     2.1841E-03     1.2925E-26

      iter #   8 total cpu time :  3823.7 secs   av.it.:  19.3
      thresh= 1.581E-08 alpha_mix =  0.300 |ddv_scf|^2 =  2.065E-15

     End of self-consistent calculation

     Convergence has been achieved 


     Representation #  10 mode #  10

     Self-consistent Calculation

     Pert. #  1: Fermi energy shift (Ry) =    -1.8232E-04     4.2352E-22

      iter #   1 total cpu time :  3851.0 secs   av.it.:   5.6
      thresh= 1.000E-02 alpha_mix =  0.300 |ddv_scf|^2 =  9.018E-09

     Pert. #  1: Fermi energy shift (Ry) =     2.0381E-03     4.1359E-25

      iter #   2 total cpu time :  3904.6 secs   av.it.:  18.5
      thresh= 9.496E-06 alpha_mix =  0.300 |ddv_scf|^2 =  1.879E-09

     Pert. #  1: Fermi energy shift (Ry) =     2.7888E-03    -4.1359E-25

      iter #   3 total cpu time :  3957.8 secs   av.it.:  18.7
      thresh= 4.335E-06 alpha_mix =  0.300 |ddv_scf|^2 =  1.286E-10

     Pert. #  1: Fermi energy shift (Ry) =     2.6770E-03    -3.2312E-27

      iter #   4 total cpu time :  4011.6 secs   av.it.:  19.0
      thresh= 1.134E-06 alpha_mix =  0.300 |ddv_scf|^2 =  1.503E-11

     Pert. #  1: Fermi energy shift (Ry) =     2.3874E-03    -2.5849E-26

      iter #   5 total cpu time :  4065.7 secs   av.it.:  19.1
      thresh= 3.877E-07 alpha_mix =  0.300 |ddv_scf|^2 =  1.820E-12

     Pert. #  1: Fermi energy shift (Ry) =     2.2047E-03    -1.2925E-26

      iter #   6 total cpu time :  4121.0 secs   av.it.:  19.6
      thresh= 1.349E-07 alpha_mix =  0.300 |ddv_scf|^2 =  1.279E-13

     Pert. #  1: Fermi energy shift (Ry) =     2.1806E-03    -1.2925E-26

      iter #   7 total cpu time :  4174.5 secs   av.it.:  18.9
      thresh= 3.576E-08 alpha_mix =  0.300 |ddv_scf|^2 =  2.504E-14

     Pert. #  1: Fermi energy shift (Ry) =     2.1795E-03    -1.2925E-26

      iter #   8 total cpu time :  4230.9 secs   av.it.:  19.3
      thresh= 1.582E-08 alpha_mix =  0.300 |ddv_scf|^2 =  2.062E-15

     End of self-consistent calculation

     Convergence has been achieved 


     Representation #  11 mode #  11

     Self-consistent Calculation

     Pert. #  1: Fermi energy shift (Ry) =     1.8411E-04     0.0000E+00

      iter #   1 total cpu time :  4257.6 secs   av.it.:   5.6
      thresh= 1.000E-02 alpha_mix =  0.300 |ddv_scf|^2 =  9.020E-09

     Pert. #  1: Fermi energy shift (Ry) =    -2.0370E-03     0.0000E+00

      iter #   2 total cpu time :  4310.2 secs   av.it.:  18.5
      thresh= 9.497E-06 alpha_mix =  0.300 |ddv_scf|^2 =  1.879E-09

     Pert. #  1: Fermi energy shift (Ry) =    -2.7877E-03     0.0000E+00

      iter #   3 total cpu time :  4363.8 secs   av.it.:  18.7
      thresh= 4.335E-06 alpha_mix =  0.300 |ddv_scf|^2 =  1.287E-10

     Pert. #  1: Fermi energy shift (Ry) =    -2.6759E-03     0.0000E+00

      iter #   4 total cpu time :  4418.6 secs   av.it.:  19.0
      thresh= 1.134E-06 alpha_mix =  0.300 |ddv_scf|^2 =  1.503E-11

     Pert. #  1: Fermi energy shift (Ry) =    -2.3863E-03     0.0000E+00

      iter #   5 total cpu time :  4472.7 secs   av.it.:  19.1
      thresh= 3.877E-07 alpha_mix =  0.300 |ddv_scf|^2 =  1.820E-12

     Pert. #  1: Fermi energy shift (Ry) =    -2.2036E-03     0.0000E+00

      iter #   6 total cpu time :  4528.0 secs   av.it.:  19.6
      thresh= 1.349E-07 alpha_mix =  0.300 |ddv_scf|^2 =  1.279E-13

     Pert. #  1: Fermi energy shift (Ry) =    -2.1795E-03     0.0000E+00

      iter #   7 total cpu time :  4581.5 secs   av.it.:  18.9
      thresh= 3.576E-08 alpha_mix =  0.300 |ddv_scf|^2 =  2.506E-14

     Pert. #  1: Fermi energy shift (Ry) =    -2.1784E-03     0.0000E+00

      iter #   8 total cpu time :  4636.9 secs   av.it.:  19.3
      thresh= 1.583E-08 alpha_mix =  0.300 |ddv_scf|^2 =  2.063E-15

     End of self-consistent calculation

     Convergence has been achieved 


     Representation #  12 mode #  12

     Self-consistent Calculation

     Pert. #  1: Fermi energy shift (Ry) =     1.7435E-04    -4.2352E-22

      iter #   1 total cpu time :  4663.8 secs   av.it.:   5.6
      thresh= 1.000E-02 alpha_mix =  0.300 |ddv_scf|^2 =  9.011E-09

     Pert. #  1: Fermi energy shift (Ry) =    -2.0426E-03    -2.0680E-25

      iter #   2 total cpu time :  4718.0 secs   av.it.:  18.5
      thresh= 9.493E-06 alpha_mix =  0.300 |ddv_scf|^2 =  1.880E-09

     Pert. #  1: Fermi energy shift (Ry) =    -2.7939E-03     4.1359E-25

      iter #   3 total cpu time :  4771.1 secs   av.it.:  18.7
      thresh= 4.335E-06 alpha_mix =  0.300 |ddv_scf|^2 =  1.282E-10

     Pert. #  1: Fermi energy shift (Ry) =    -2.6818E-03     3.2312E-27

      iter #   4 total cpu time :  4826.5 secs   av.it.:  19.0
      thresh= 1.132E-06 alpha_mix =  0.300 |ddv_scf|^2 =  1.502E-11

     Pert. #  1: Fermi energy shift (Ry) =    -2.3922E-03     5.1699E-26

      iter #   5 total cpu time :  4882.2 secs   av.it.:  19.1
      thresh= 3.876E-07 alpha_mix =  0.300 |ddv_scf|^2 =  1.816E-12

     Pert. #  1: Fermi energy shift (Ry) =    -2.2097E-03     1.2925E-26

      iter #   6 total cpu time :  4939.3 secs   av.it.:  19.6
      thresh= 1.347E-07 alpha_mix =  0.300 |ddv_scf|^2 =  1.279E-13

     Pert. #  1: Fermi energy shift (Ry) =    -2.1855E-03     2.5849E-26

      iter #   7 total cpu time :  4993.0 secs   av.it.:  18.9
      thresh= 3.576E-08 alpha_mix =  0.300 |ddv_scf|^2 =  2.500E-14

     Pert. #  1: Fermi energy shift (Ry) =    -2.1844E-03     1.2925E-26

      iter #   8 total cpu time :  5048.7 secs   av.it.:  19.3
      thresh= 1.581E-08 alpha_mix =  0.300 |ddv_scf|^2 =  2.066E-15

     End of self-consistent calculation

     Convergence has been achieved 


     Representation #  13 mode #  13

     Self-consistent Calculation

     Pert. #  1: Fermi energy shift (Ry) =    -4.8798E-03    -1.6941E-21

      iter #   1 total cpu time :  5077.7 secs   av.it.:   6.4
      thresh= 1.000E-02 alpha_mix =  0.300 |ddv_scf|^2 =  9.836E-09

     Pert. #  1: Fermi energy shift (Ry) =    -6.8485E-03    -8.2718E-25

      iter #   2 total cpu time :  5131.7 secs   av.it.:  18.6
      thresh= 9.917E-06 alpha_mix =  0.300 |ddv_scf|^2 =  1.796E-09

     Pert. #  1: Fermi energy shift (Ry) =    -8.3105E-03    -4.1359E-25

      iter #   3 total cpu time :  5186.3 secs   av.it.:  19.2
      thresh= 4.238E-06 alpha_mix =  0.300 |ddv_scf|^2 =  1.310E-10

     Pert. #  1: Fermi energy shift (Ry) =    -8.4583E-03     5.1699E-26

      iter #   4 total cpu time :  5240.7 secs   av.it.:  19.3
      thresh= 1.144E-06 alpha_mix =  0.300 |ddv_scf|^2 =  1.190E-11

     Pert. #  1: Fermi energy shift (Ry) =    -8.1596E-03     6.4623E-27

      iter #   5 total cpu time :  5295.3 secs   av.it.:  19.3
      thresh= 3.450E-07 alpha_mix =  0.300 |ddv_scf|^2 =  1.560E-12

     Pert. #  1: Fermi energy shift (Ry) =    -7.9489E-03     6.4623E-27

      iter #   6 total cpu time :  5350.6 secs   av.it.:  19.6
      thresh= 1.249E-07 alpha_mix =  0.300 |ddv_scf|^2 =  1.397E-13

     Pert. #  1: Fermi energy shift (Ry) =    -7.8793E-03     1.2925E-26

      iter #   7 total cpu time :  5405.4 secs   av.it.:  19.4
      thresh= 3.738E-08 alpha_mix =  0.300 |ddv_scf|^2 =  1.817E-14

     Pert. #  1: Fermi energy shift (Ry) =    -7.8651E-03     1.2925E-26

      iter #   8 total cpu time :  5459.8 secs   av.it.:  19.1
      thresh= 1.348E-08 alpha_mix =  0.300 |ddv_scf|^2 =  3.740E-15

     End of self-consistent calculation

     Convergence has been achieved 


     Representation #  14 mode #  14

     Self-consistent Calculation

     Pert. #  1: Fermi energy shift (Ry) =     4.8858E-03     0.0000E+00

      iter #   1 total cpu time :  5489.5 secs   av.it.:   6.4
      thresh= 1.000E-02 alpha_mix =  0.300 |ddv_scf|^2 =  9.837E-09

     Pert. #  1: Fermi energy shift (Ry) =     6.8529E-03     0.0000E+00

      iter #   2 total cpu time :  5543.1 secs   av.it.:  18.6
      thresh= 9.918E-06 alpha_mix =  0.300 |ddv_scf|^2 =  1.796E-09

     Pert. #  1: Fermi energy shift (Ry) =     8.3146E-03     0.0000E+00

      iter #   3 total cpu time :  5597.5 secs   av.it.:  19.2
      thresh= 4.238E-06 alpha_mix =  0.300 |ddv_scf|^2 =  1.310E-10

     Pert. #  1: Fermi energy shift (Ry) =     8.4624E-03     0.0000E+00

      iter #   4 total cpu time :  5652.9 secs   av.it.:  19.3
      thresh= 1.145E-06 alpha_mix =  0.300 |ddv_scf|^2 =  1.190E-11

     Pert. #  1: Fermi energy shift (Ry) =     8.1639E-03     0.0000E+00

      iter #   5 total cpu time :  5709.1 secs   av.it.:  19.3
      thresh= 3.450E-07 alpha_mix =  0.300 |ddv_scf|^2 =  1.562E-12

     Pert. #  1: Fermi energy shift (Ry) =     7.9531E-03     0.0000E+00

      iter #   6 total cpu time :  5765.8 secs   av.it.:  19.6
      thresh= 1.250E-07 alpha_mix =  0.300 |ddv_scf|^2 =  1.397E-13

     Pert. #  1: Fermi energy shift (Ry) =     7.8834E-03     0.0000E+00

      iter #   7 total cpu time :  5820.7 secs   av.it.:  19.4
      thresh= 3.738E-08 alpha_mix =  0.300 |ddv_scf|^2 =  1.817E-14

     Pert. #  1: Fermi energy shift (Ry) =     7.8692E-03     0.0000E+00

      iter #   8 total cpu time :  5874.6 secs   av.it.:  19.1
      thresh= 1.348E-08 alpha_mix =  0.300 |ddv_scf|^2 =  3.740E-15

     End of self-consistent calculation

     Convergence has been achieved 


     Representation #  15 mode #  15

     Self-consistent Calculation

     Pert. #  1: Fermi energy shift (Ry) =    -7.7784E-03    -3.3881E-21

      iter #   1 total cpu time :  5905.9 secs   av.it.:   7.4
      thresh= 1.000E-02 alpha_mix =  0.300 |ddv_scf|^2 =  2.381E-08

     Pert. #  1: Fermi energy shift (Ry) =    -9.7204E-03    -8.2718E-25

      iter #   2 total cpu time :  5959.4 secs   av.it.:  18.9
      thresh= 1.543E-05 alpha_mix =  0.300 |ddv_scf|^2 =  1.778E-09

     Pert. #  1: Fermi energy shift (Ry) =    -1.1117E-02    -2.5849E-26

      iter #   3 total cpu time :  6015.3 secs   av.it.:  19.1
      thresh= 4.217E-06 alpha_mix =  0.300 |ddv_scf|^2 =  2.162E-10

     Pert. #  1: Fermi energy shift (Ry) =    -1.2124E-02    -2.5849E-26

      iter #   4 total cpu time :  6072.8 secs   av.it.:  19.7
      thresh= 1.470E-06 alpha_mix =  0.300 |ddv_scf|^2 =  1.656E-11

     Pert. #  1: Fermi energy shift (Ry) =    -1.2269E-02     1.2925E-26

      iter #   5 total cpu time :  6128.8 secs   av.it.:  19.2
      thresh= 4.070E-07 alpha_mix =  0.300 |ddv_scf|^2 =  3.038E-12

     Pert. #  1: Fermi energy shift (Ry) =    -1.2182E-02    -2.5849E-26

      iter #   6 total cpu time :  6184.3 secs   av.it.:  19.8
      thresh= 1.743E-07 alpha_mix =  0.300 |ddv_scf|^2 =  1.835E-13

     Pert. #  1: Fermi energy shift (Ry) =    -1.2077E-02    -2.5849E-26

      iter #   7 total cpu time :  6240.6 secs   av.it.:  19.3
      thresh= 4.283E-08 alpha_mix =  0.300 |ddv_scf|^2 =  2.225E-14

     Pert. #  1: Fermi energy shift (Ry) =    -1.2038E-02    -2.5849E-26

      iter #   8 total cpu time :  6297.2 secs   av.it.:  19.4
      thresh= 1.492E-08 alpha_mix =  0.300 |ddv_scf|^2 =  3.024E-15

     End of self-consistent calculation

     Convergence has been achieved 


     Representation #  16 mode #  16

     Self-consistent Calculation

     Pert. #  1: Fermi energy shift (Ry) =     4.8869E-03    -1.6941E-21

      iter #   1 total cpu time :  6326.4 secs   av.it.:   6.4
      thresh= 1.000E-02 alpha_mix =  0.300 |ddv_scf|^2 =  9.836E-09

     Pert. #  1: Fermi energy shift (Ry) =     6.8543E-03    -8.2718E-25

      iter #   2 total cpu time :  6379.6 secs   av.it.:  18.6
      thresh= 9.918E-06 alpha_mix =  0.300 |ddv_scf|^2 =  1.796E-09

     Pert. #  1: Fermi energy shift (Ry) =     8.3161E-03    -4.1359E-25

      iter #   3 total cpu time :  6433.9 secs   av.it.:  19.2
      thresh= 4.238E-06 alpha_mix =  0.300 |ddv_scf|^2 =  1.310E-10

     Pert. #  1: Fermi energy shift (Ry) =     8.4640E-03     5.1699E-26

      iter #   4 total cpu time :  6489.6 secs   av.it.:  19.3
      thresh= 1.145E-06 alpha_mix =  0.300 |ddv_scf|^2 =  1.190E-11

     Pert. #  1: Fermi energy shift (Ry) =     8.1654E-03     6.4623E-27

      iter #   5 total cpu time :  6545.9 secs   av.it.:  19.3
      thresh= 3.450E-07 alpha_mix =  0.300 |ddv_scf|^2 =  1.560E-12

     Pert. #  1: Fermi energy shift (Ry) =     7.9546E-03     1.2925E-26

      iter #   6 total cpu time :  6601.3 secs   av.it.:  19.6
      thresh= 1.249E-07 alpha_mix =  0.300 |ddv_scf|^2 =  1.397E-13

     Pert. #  1: Fermi energy shift (Ry) =     7.8850E-03     1.2925E-26

      iter #   7 total cpu time :  6656.0 secs   av.it.:  19.4
      thresh= 3.738E-08 alpha_mix =  0.300 |ddv_scf|^2 =  1.817E-14

     Pert. #  1: Fermi energy shift (Ry) =     7.8707E-03     1.2925E-26

      iter #   8 total cpu time :  6710.3 secs   av.it.:  19.1
      thresh= 1.348E-08 alpha_mix =  0.300 |ddv_scf|^2 =  3.740E-15

     End of self-consistent calculation

     Convergence has been achieved 


     Representation #  17 mode #  17

     Self-consistent Calculation

     Pert. #  1: Fermi energy shift (Ry) =    -4.8874E-03     0.0000E+00

      iter #   1 total cpu time :  6739.2 secs   av.it.:   6.4
      thresh= 1.000E-02 alpha_mix =  0.300 |ddv_scf|^2 =  9.836E-09

     Pert. #  1: Fermi energy shift (Ry) =    -6.8532E-03     0.0000E+00

      iter #   2 total cpu time :  6793.5 secs   av.it.:  18.6
      thresh= 9.918E-06 alpha_mix =  0.300 |ddv_scf|^2 =  1.796E-09

     Pert. #  1: Fermi energy shift (Ry) =    -8.3147E-03     0.0000E+00

      iter #   3 total cpu time :  6848.8 secs   av.it.:  19.2
      thresh= 4.238E-06 alpha_mix =  0.300 |ddv_scf|^2 =  1.310E-10

     Pert. #  1: Fermi energy shift (Ry) =    -8.4627E-03     0.0000E+00

      iter #   4 total cpu time :  6903.8 secs   av.it.:  19.3
      thresh= 1.145E-06 alpha_mix =  0.300 |ddv_scf|^2 =  1.190E-11

     Pert. #  1: Fermi energy shift (Ry) =    -8.1643E-03     0.0000E+00

      iter #   5 total cpu time :  6960.3 secs   av.it.:  19.3
      thresh= 3.450E-07 alpha_mix =  0.300 |ddv_scf|^2 =  1.562E-12

     Pert. #  1: Fermi energy shift (Ry) =    -7.9535E-03     0.0000E+00

      iter #   6 total cpu time :  7016.9 secs   av.it.:  19.6
      thresh= 1.250E-07 alpha_mix =  0.300 |ddv_scf|^2 =  1.397E-13

     Pert. #  1: Fermi energy shift (Ry) =    -7.8838E-03     0.0000E+00

      iter #   7 total cpu time :  7072.4 secs   av.it.:  19.3
      thresh= 3.738E-08 alpha_mix =  0.300 |ddv_scf|^2 =  1.817E-14

     Pert. #  1: Fermi energy shift (Ry) =    -7.8695E-03     0.0000E+00

      iter #   8 total cpu time :  7126.7 secs   av.it.:  19.1
      thresh= 1.348E-08 alpha_mix =  0.300 |ddv_scf|^2 =  3.739E-15

     End of self-consistent calculation

     Convergence has been achieved 


     Representation #  18 mode #  18

     Self-consistent Calculation

     Pert. #  1: Fermi energy shift (Ry) =     7.7826E-03    -3.3881E-21

      iter #   1 total cpu time :  7158.0 secs   av.it.:   7.4
      thresh= 1.000E-02 alpha_mix =  0.300 |ddv_scf|^2 =  2.381E-08

     Pert. #  1: Fermi energy shift (Ry) =     9.7239E-03    -8.2718E-25

      iter #   2 total cpu time :  7211.6 secs   av.it.:  18.9
      thresh= 1.543E-05 alpha_mix =  0.300 |ddv_scf|^2 =  1.779E-09

     Pert. #  1: Fermi energy shift (Ry) =     1.1121E-02    -2.5849E-26

      iter #   3 total cpu time :  7267.5 secs   av.it.:  19.1
      thresh= 4.217E-06 alpha_mix =  0.300 |ddv_scf|^2 =  2.162E-10

     Pert. #  1: Fermi energy shift (Ry) =     1.2127E-02    -2.5849E-26

      iter #   4 total cpu time :  7325.1 secs   av.it.:  19.7
      thresh= 1.470E-06 alpha_mix =  0.300 |ddv_scf|^2 =  1.656E-11

     Pert. #  1: Fermi energy shift (Ry) =     1.2273E-02     1.2925E-26

      iter #   5 total cpu time :  7379.6 secs   av.it.:  19.2
      thresh= 4.069E-07 alpha_mix =  0.300 |ddv_scf|^2 =  3.038E-12

     Pert. #  1: Fermi energy shift (Ry) =     1.2185E-02    -2.5849E-26

      iter #   6 total cpu time :  7437.0 secs   av.it.:  19.8
      thresh= 1.743E-07 alpha_mix =  0.300 |ddv_scf|^2 =  1.835E-13

     Pert. #  1: Fermi energy shift (Ry) =     1.2081E-02    -1.2925E-26

      iter #   7 total cpu time :  7492.4 secs   av.it.:  19.3
      thresh= 4.284E-08 alpha_mix =  0.300 |ddv_scf|^2 =  2.225E-14

     Pert. #  1: Fermi energy shift (Ry) =     1.2041E-02    -1.2925E-26

      iter #   8 total cpu time :  7547.5 secs   av.it.:  19.4
      thresh= 1.492E-08 alpha_mix =  0.300 |ddv_scf|^2 =  3.020E-15

     End of self-consistent calculation

     Convergence has been achieved 


     Representation #  19 mode #  19

     Self-consistent Calculation

     Pert. #  1: Fermi energy shift (Ry) =     7.7387E-03     1.6941E-21

      iter #   1 total cpu time :  7579.5 secs   av.it.:   7.4
      thresh= 1.000E-02 alpha_mix =  0.300 |ddv_scf|^2 =  2.381E-08

     Pert. #  1: Fermi energy shift (Ry) =     9.6888E-03     8.2718E-25

      iter #   2 total cpu time :  7634.6 secs   av.it.:  18.9
      thresh= 1.543E-05 alpha_mix =  0.300 |ddv_scf|^2 =  1.778E-09

     Pert. #  1: Fermi energy shift (Ry) =     1.1089E-02     6.4623E-27

      iter #   3 total cpu time :  7690.4 secs   av.it.:  19.1
      thresh= 4.217E-06 alpha_mix =  0.300 |ddv_scf|^2 =  2.160E-10

     Pert. #  1: Fermi energy shift (Ry) =     1.2097E-02     6.4623E-27

      iter #   4 total cpu time :  7745.9 secs   av.it.:  19.7
      thresh= 1.470E-06 alpha_mix =  0.300 |ddv_scf|^2 =  1.652E-11

     Pert. #  1: Fermi energy shift (Ry) =     1.2241E-02    -1.2925E-26

      iter #   5 total cpu time :  7802.0 secs   av.it.:  19.2
      thresh= 4.065E-07 alpha_mix =  0.300 |ddv_scf|^2 =  3.032E-12

     Pert. #  1: Fermi energy shift (Ry) =     1.2154E-02     5.1699E-26

      iter #   6 total cpu time :  7857.9 secs   av.it.:  19.7
      thresh= 1.741E-07 alpha_mix =  0.300 |ddv_scf|^2 =  1.833E-13

     Pert. #  1: Fermi energy shift (Ry) =     1.2049E-02     2.5849E-26

      iter #   7 total cpu time :  7914.3 secs   av.it.:  19.3
      thresh= 4.281E-08 alpha_mix =  0.300 |ddv_scf|^2 =  2.222E-14

     Pert. #  1: Fermi energy shift (Ry) =     1.2010E-02     2.5849E-26

      iter #   8 total cpu time :  7970.9 secs   av.it.:  19.4
      thresh= 1.491E-08 alpha_mix =  0.300 |ddv_scf|^2 =  3.010E-15

     End of self-consistent calculation

     Convergence has been achieved 


     Representation #  20 mode #  20

     Self-consistent Calculation

     Pert. #  1: Fermi energy shift (Ry) =     4.9058E-03     0.0000E+00

      iter #   1 total cpu time :  8000.5 secs   av.it.:   6.4
      thresh= 1.000E-02 alpha_mix =  0.300 |ddv_scf|^2 =  9.836E-09

     Pert. #  1: Fermi energy shift (Ry) =     6.8731E-03     0.0000E+00

      iter #   2 total cpu time :  8054.9 secs   av.it.:  18.6
      thresh= 9.918E-06 alpha_mix =  0.300 |ddv_scf|^2 =  1.797E-09

     Pert. #  1: Fermi energy shift (Ry) =     8.3385E-03     0.0000E+00

      iter #   3 total cpu time :  8110.9 secs   av.it.:  19.2
      thresh= 4.239E-06 alpha_mix =  0.300 |ddv_scf|^2 =  1.308E-10

     Pert. #  1: Fermi energy shift (Ry) =     8.4862E-03     0.0000E+00

      iter #   4 total cpu time :  8165.8 secs   av.it.:  19.3
      thresh= 1.144E-06 alpha_mix =  0.300 |ddv_scf|^2 =  1.189E-11

     Pert. #  1: Fermi energy shift (Ry) =     8.1877E-03     0.0000E+00

      iter #   5 total cpu time :  8220.5 secs   av.it.:  19.3
      thresh= 3.448E-07 alpha_mix =  0.300 |ddv_scf|^2 =  1.557E-12

     Pert. #  1: Fermi energy shift (Ry) =     7.9770E-03     0.0000E+00

      iter #   6 total cpu time :  8275.9 secs   av.it.:  19.6
      thresh= 1.248E-07 alpha_mix =  0.300 |ddv_scf|^2 =  1.396E-13

     Pert. #  1: Fermi energy shift (Ry) =     7.9073E-03     0.0000E+00

      iter #   7 total cpu time :  8330.8 secs   av.it.:  19.4
      thresh= 3.736E-08 alpha_mix =  0.300 |ddv_scf|^2 =  1.815E-14

     Pert. #  1: Fermi energy shift (Ry) =     7.8931E-03     0.0000E+00

      iter #   8 total cpu time :  8384.8 secs   av.it.:  19.1
      thresh= 1.347E-08 alpha_mix =  0.300 |ddv_scf|^2 =  3.736E-15

     End of self-consistent calculation

     Convergence has been achieved 


     Representation #  21 mode #  21

     Self-consistent Calculation

     Pert. #  1: Fermi energy shift (Ry) =     4.8835E-03     1.6941E-21

      iter #   1 total cpu time :  8414.4 secs   av.it.:   6.4
      thresh= 1.000E-02 alpha_mix =  0.300 |ddv_scf|^2 =  9.830E-09

     Pert. #  1: Fermi energy shift (Ry) =     6.8591E-03     4.1359E-25

      iter #   2 total cpu time :  8467.1 secs   av.it.:  18.6
      thresh= 9.915E-06 alpha_mix =  0.300 |ddv_scf|^2 =  1.796E-09

     Pert. #  1: Fermi energy shift (Ry) =     8.3261E-03     2.0680E-25

      iter #   3 total cpu time :  8521.4 secs   av.it.:  19.2
      thresh= 4.238E-06 alpha_mix =  0.300 |ddv_scf|^2 =  1.307E-10

     Pert. #  1: Fermi energy shift (Ry) =     8.4734E-03    -1.0340E-25

      iter #   4 total cpu time :  8576.0 secs   av.it.:  19.3
      thresh= 1.143E-06 alpha_mix =  0.300 |ddv_scf|^2 =  1.188E-11

     Pert. #  1: Fermi energy shift (Ry) =     8.1742E-03    -1.2925E-26

      iter #   5 total cpu time :  8630.8 secs   av.it.:  19.3
      thresh= 3.447E-07 alpha_mix =  0.300 |ddv_scf|^2 =  1.551E-12

     Pert. #  1: Fermi energy shift (Ry) =     7.9640E-03    -1.2925E-26

      iter #   6 total cpu time :  8688.1 secs   av.it.:  19.6
      thresh= 1.245E-07 alpha_mix =  0.300 |ddv_scf|^2 =  1.396E-13

     Pert. #  1: Fermi energy shift (Ry) =     7.8944E-03    -1.2925E-26

      iter #   7 total cpu time :  8742.9 secs   av.it.:  19.4
      thresh= 3.737E-08 alpha_mix =  0.300 |ddv_scf|^2 =  1.817E-14

     Pert. #  1: Fermi energy shift (Ry) =     7.8802E-03    -1.2925E-26

      iter #   8 total cpu time :  8797.2 secs   av.it.:  19.1
      thresh= 1.348E-08 alpha_mix =  0.300 |ddv_scf|^2 =  3.740E-15

     End of self-consistent calculation

     Convergence has been achieved 


     Representation #  22 mode #  22

     Self-consistent Calculation

     Pert. #  1: Fermi energy shift (Ry) =    -7.7386E-03     1.6941E-21

      iter #   1 total cpu time :  8828.5 secs   av.it.:   7.4
      thresh= 1.000E-02 alpha_mix =  0.300 |ddv_scf|^2 =  2.381E-08

     Pert. #  1: Fermi energy shift (Ry) =    -9.6886E-03     8.2718E-25

      iter #   2 total cpu time :  8882.1 secs   av.it.:  18.9
      thresh= 1.543E-05 alpha_mix =  0.300 |ddv_scf|^2 =  1.778E-09

     Pert. #  1: Fermi energy shift (Ry) =    -1.1089E-02    -2.5849E-26

      iter #   3 total cpu time :  8936.3 secs   av.it.:  19.1
      thresh= 4.217E-06 alpha_mix =  0.300 |ddv_scf|^2 =  2.160E-10

     Pert. #  1: Fermi energy shift (Ry) =    -1.2097E-02     6.4623E-27

      iter #   4 total cpu time :  8993.8 secs   av.it.:  19.7
      thresh= 1.470E-06 alpha_mix =  0.300 |ddv_scf|^2 =  1.652E-11

     Pert. #  1: Fermi energy shift (Ry) =    -1.2241E-02    -2.5849E-26

      iter #   5 total cpu time :  9049.9 secs   av.it.:  19.2
      thresh= 4.065E-07 alpha_mix =  0.300 |ddv_scf|^2 =  3.033E-12

     Pert. #  1: Fermi energy shift (Ry) =    -1.2154E-02     2.5849E-26

      iter #   6 total cpu time :  9107.5 secs   av.it.:  19.7
      thresh= 1.741E-07 alpha_mix =  0.300 |ddv_scf|^2 =  1.833E-13

     Pert. #  1: Fermi energy shift (Ry) =    -1.2049E-02     1.2925E-26

      iter #   7 total cpu time :  9162.3 secs   av.it.:  19.3
      thresh= 4.282E-08 alpha_mix =  0.300 |ddv_scf|^2 =  2.222E-14

     Pert. #  1: Fermi energy shift (Ry) =    -1.2010E-02     1.2925E-26

      iter #   8 total cpu time :  9218.2 secs   av.it.:  19.4
      thresh= 1.491E-08 alpha_mix =  0.300 |ddv_scf|^2 =  3.009E-15

     End of self-consistent calculation

     Convergence has been achieved 


     Representation #  23 mode #  23

     Self-consistent Calculation

     Pert. #  1: Fermi energy shift (Ry) =    -4.8997E-03     0.0000E+00

      iter #   1 total cpu time :  9247.0 secs   av.it.:   6.4
      thresh= 1.000E-02 alpha_mix =  0.300 |ddv_scf|^2 =  9.835E-09

     Pert. #  1: Fermi energy shift (Ry) =    -6.8670E-03     0.0000E+00

      iter #   2 total cpu time :  9299.7 secs   av.it.:  18.6
      thresh= 9.917E-06 alpha_mix =  0.300 |ddv_scf|^2 =  1.797E-09

     Pert. #  1: Fermi energy shift (Ry) =    -8.3324E-03     0.0000E+00

      iter #   3 total cpu time :  9355.5 secs   av.it.:  19.2
      thresh= 4.239E-06 alpha_mix =  0.300 |ddv_scf|^2 =  1.308E-10

     Pert. #  1: Fermi energy shift (Ry) =    -8.4802E-03     0.0000E+00

      iter #   4 total cpu time :  9409.9 secs   av.it.:  19.3
      thresh= 1.144E-06 alpha_mix =  0.300 |ddv_scf|^2 =  1.189E-11

     Pert. #  1: Fermi energy shift (Ry) =    -8.1817E-03     0.0000E+00

      iter #   5 total cpu time :  9464.4 secs   av.it.:  19.3
      thresh= 3.448E-07 alpha_mix =  0.300 |ddv_scf|^2 =  1.557E-12

     Pert. #  1: Fermi energy shift (Ry) =    -7.9711E-03     0.0000E+00

      iter #   6 total cpu time :  9521.6 secs   av.it.:  19.6
      thresh= 1.248E-07 alpha_mix =  0.300 |ddv_scf|^2 =  1.396E-13

     Pert. #  1: Fermi energy shift (Ry) =    -7.9014E-03     0.0000E+00

      iter #   7 total cpu time :  9578.0 secs   av.it.:  19.4
      thresh= 3.736E-08 alpha_mix =  0.300 |ddv_scf|^2 =  1.815E-14

     Pert. #  1: Fermi energy shift (Ry) =    -7.8871E-03     0.0000E+00

      iter #   8 total cpu time :  9634.1 secs   av.it.:  19.1
      thresh= 1.347E-08 alpha_mix =  0.300 |ddv_scf|^2 =  3.734E-15

     End of self-consistent calculation

     Convergence has been achieved 


     Representation #  24 mode #  24

     Self-consistent Calculation

     Pert. #  1: Fermi energy shift (Ry) =    -4.8890E-03     1.6941E-21

      iter #   1 total cpu time :  9663.0 secs   av.it.:   6.4
      thresh= 1.000E-02 alpha_mix =  0.300 |ddv_scf|^2 =  9.831E-09

     Pert. #  1: Fermi energy shift (Ry) =    -6.8649E-03     8.2718E-25

      iter #   2 total cpu time :  9717.5 secs   av.it.:  18.6
      thresh= 9.915E-06 alpha_mix =  0.300 |ddv_scf|^2 =  1.796E-09

     Pert. #  1: Fermi energy shift (Ry) =    -8.3319E-03     2.0680E-25

      iter #   3 total cpu time :  9771.8 secs   av.it.:  19.2
      thresh= 4.238E-06 alpha_mix =  0.300 |ddv_scf|^2 =  1.308E-10

     Pert. #  1: Fermi energy shift (Ry) =    -8.4791E-03    -1.0340E-25

      iter #   4 total cpu time :  9828.1 secs   av.it.:  19.3
      thresh= 1.144E-06 alpha_mix =  0.300 |ddv_scf|^2 =  1.188E-11

     Pert. #  1: Fermi energy shift (Ry) =    -8.1798E-03    -2.5849E-26

      iter #   5 total cpu time :  9882.8 secs   av.it.:  19.3
      thresh= 3.447E-07 alpha_mix =  0.300 |ddv_scf|^2 =  1.550E-12

     Pert. #  1: Fermi energy shift (Ry) =    -7.9697E-03    -1.2925E-26

      iter #   6 total cpu time :  9938.2 secs   av.it.:  19.6
      thresh= 1.245E-07 alpha_mix =  0.300 |ddv_scf|^2 =  1.396E-13

     Pert. #  1: Fermi energy shift (Ry) =    -7.9001E-03    -1.2925E-26

      iter #   7 total cpu time :  9993.8 secs   av.it.:  19.4
      thresh= 3.736E-08 alpha_mix =  0.300 |ddv_scf|^2 =  1.817E-14

     Pert. #  1: Fermi energy shift (Ry) =    -7.8858E-03    -1.2925E-26

      iter #   8 total cpu time : 10049.5 secs   av.it.:  19.1
      thresh= 1.348E-08 alpha_mix =  0.300 |ddv_scf|^2 =  3.741E-15

     End of self-consistent calculation

     Convergence has been achieved 


     Representation #  25 mode #  25

     Self-consistent Calculation

     Pert. #  1: Fermi energy shift (Ry) =    -4.9057E-03    -8.4703E-22

      iter #   1 total cpu time : 10079.1 secs   av.it.:   6.4
      thresh= 1.000E-02 alpha_mix =  0.300 |ddv_scf|^2 =  9.835E-09

     Pert. #  1: Fermi energy shift (Ry) =    -6.8749E-03     1.6544E-24

      iter #   2 total cpu time : 10133.5 secs   av.it.:  18.6
      thresh= 9.917E-06 alpha_mix =  0.300 |ddv_scf|^2 =  1.797E-09

     Pert. #  1: Fermi energy shift (Ry) =    -8.3415E-03     1.0340E-25

      iter #   3 total cpu time : 10189.3 secs   av.it.:  19.2
      thresh= 4.239E-06 alpha_mix =  0.300 |ddv_scf|^2 =  1.308E-10

     Pert. #  1: Fermi energy shift (Ry) =    -8.4891E-03     5.1699E-26

      iter #   4 total cpu time : 10243.9 secs   av.it.:  19.3
      thresh= 1.143E-06 alpha_mix =  0.300 |ddv_scf|^2 =  1.188E-11

     Pert. #  1: Fermi energy shift (Ry) =    -8.1904E-03     1.2925E-26

      iter #   5 total cpu time : 10300.4 secs   av.it.:  19.3
      thresh= 3.447E-07 alpha_mix =  0.300 |ddv_scf|^2 =  1.555E-12

     Pert. #  1: Fermi energy shift (Ry) =    -7.9799E-03     1.2925E-26

      iter #   6 total cpu time : 10355.8 secs   av.it.:  19.6
      thresh= 1.247E-07 alpha_mix =  0.300 |ddv_scf|^2 =  1.395E-13

     Pert. #  1: Fermi energy shift (Ry) =    -7.9102E-03    -4.0390E-28

      iter #   7 total cpu time : 10410.6 secs   av.it.:  19.4
      thresh= 3.735E-08 alpha_mix =  0.300 |ddv_scf|^2 =  1.815E-14

     Pert. #  1: Fermi energy shift (Ry) =    -7.8959E-03     1.0097E-28

      iter #   8 total cpu time : 10464.9 secs   av.it.:  19.1
      thresh= 1.347E-08 alpha_mix =  0.300 |ddv_scf|^2 =  3.736E-15

     End of self-consistent calculation

     Convergence has been achieved 


     Representation #  26 mode #  26

     Self-consistent Calculation

     Pert. #  1: Fermi energy shift (Ry) =    -7.7308E-03     0.0000E+00

      iter #   1 total cpu time : 10497.1 secs   av.it.:   7.4
      thresh= 1.000E-02 alpha_mix =  0.300 |ddv_scf|^2 =  2.380E-08

     Pert. #  1: Fermi energy shift (Ry) =    -9.6830E-03     0.0000E+00

      iter #   2 total cpu time : 10550.9 secs   av.it.:  18.9
      thresh= 1.543E-05 alpha_mix =  0.300 |ddv_scf|^2 =  1.778E-09

     Pert. #  1: Fermi energy shift (Ry) =    -1.1084E-02     0.0000E+00

      iter #   3 total cpu time : 10605.4 secs   av.it.:  19.1
      thresh= 4.217E-06 alpha_mix =  0.300 |ddv_scf|^2 =  2.159E-10

     Pert. #  1: Fermi energy shift (Ry) =    -1.2092E-02     0.0000E+00

      iter #   4 total cpu time : 10661.4 secs   av.it.:  19.7
      thresh= 1.470E-06 alpha_mix =  0.300 |ddv_scf|^2 =  1.651E-11

     Pert. #  1: Fermi energy shift (Ry) =    -1.2237E-02     0.0000E+00

      iter #   5 total cpu time : 10715.9 secs   av.it.:  19.2
      thresh= 4.063E-07 alpha_mix =  0.300 |ddv_scf|^2 =  3.031E-12

     Pert. #  1: Fermi energy shift (Ry) =    -1.2149E-02     0.0000E+00

      iter #   6 total cpu time : 10771.5 secs   av.it.:  19.7
      thresh= 1.741E-07 alpha_mix =  0.300 |ddv_scf|^2 =  1.833E-13

     Pert. #  1: Fermi energy shift (Ry) =    -1.2045E-02     0.0000E+00

      iter #   7 total cpu time : 10826.1 secs   av.it.:  19.3
      thresh= 4.281E-08 alpha_mix =  0.300 |ddv_scf|^2 =  2.221E-14

     Pert. #  1: Fermi energy shift (Ry) =    -1.2005E-02     0.0000E+00

      iter #   8 total cpu time : 10881.2 secs   av.it.:  19.4
      thresh= 1.490E-08 alpha_mix =  0.300 |ddv_scf|^2 =  3.002E-15

     End of self-consistent calculation

     Convergence has been achieved 


     Representation #  27 mode #  27

     Self-consistent Calculation

     Pert. #  1: Fermi energy shift (Ry) =     4.8896E-03     8.4703E-22

      iter #   1 total cpu time : 10910.1 secs   av.it.:   6.4
      thresh= 1.000E-02 alpha_mix =  0.300 |ddv_scf|^2 =  9.830E-09

     Pert. #  1: Fermi energy shift (Ry) =     6.8654E-03    -1.6544E-24

      iter #   2 total cpu time : 10963.0 secs   av.it.:  18.6
      thresh= 9.915E-06 alpha_mix =  0.300 |ddv_scf|^2 =  1.796E-09

     Pert. #  1: Fermi energy shift (Ry) =     8.3331E-03    -1.0340E-25

      iter #   3 total cpu time : 11017.7 secs   av.it.:  19.2
      thresh= 4.238E-06 alpha_mix =  0.300 |ddv_scf|^2 =  1.307E-10

     Pert. #  1: Fermi energy shift (Ry) =     8.4803E-03    -5.1699E-26

      iter #   4 total cpu time : 11073.1 secs   av.it.:  19.3
      thresh= 1.143E-06 alpha_mix =  0.300 |ddv_scf|^2 =  1.188E-11

     Pert. #  1: Fermi energy shift (Ry) =     8.1811E-03    -2.5849E-26

      iter #   5 total cpu time : 11129.4 secs   av.it.:  19.3
      thresh= 3.447E-07 alpha_mix =  0.300 |ddv_scf|^2 =  1.551E-12

     Pert. #  1: Fermi energy shift (Ry) =     7.9710E-03    -1.2925E-26

      iter #   6 total cpu time : 11186.6 secs   av.it.:  19.6
      thresh= 1.245E-07 alpha_mix =  0.300 |ddv_scf|^2 =  1.396E-13

     Pert. #  1: Fermi energy shift (Ry) =     7.9014E-03     1.6156E-27

      iter #   7 total cpu time : 11242.0 secs   av.it.:  19.4
      thresh= 3.737E-08 alpha_mix =  0.300 |ddv_scf|^2 =  1.818E-14

     Pert. #  1: Fermi energy shift (Ry) =     7.8871E-03     8.0779E-28

      iter #   8 total cpu time : 11296.3 secs   av.it.:  19.1
      thresh= 1.348E-08 alpha_mix =  0.300 |ddv_scf|^2 =  3.741E-15

     End of self-consistent calculation

     Convergence has been achieved 


     Representation #  28 mode #  28

     Self-consistent Calculation

     Pert. #  1: Fermi energy shift (Ry) =     4.8984E-03    -8.4703E-22

      iter #   1 total cpu time : 11325.2 secs   av.it.:   6.4
      thresh= 1.000E-02 alpha_mix =  0.300 |ddv_scf|^2 =  9.835E-09

     Pert. #  1: Fermi energy shift (Ry) =     6.8687E-03     1.6544E-24

      iter #   2 total cpu time : 11378.4 secs   av.it.:  18.6
      thresh= 9.917E-06 alpha_mix =  0.300 |ddv_scf|^2 =  1.797E-09

     Pert. #  1: Fermi energy shift (Ry) =     8.3355E-03     2.0680E-25

      iter #   3 total cpu time : 11432.7 secs   av.it.:  19.2
      thresh= 4.239E-06 alpha_mix =  0.300 |ddv_scf|^2 =  1.307E-10

     Pert. #  1: Fermi energy shift (Ry) =     8.4831E-03     5.1699E-26

      iter #   4 total cpu time : 11487.3 secs   av.it.:  19.3
      thresh= 1.143E-06 alpha_mix =  0.300 |ddv_scf|^2 =  1.188E-11

     Pert. #  1: Fermi energy shift (Ry) =     8.1843E-03     1.2925E-26

      iter #   5 total cpu time : 11542.0 secs   av.it.:  19.3
      thresh= 3.447E-07 alpha_mix =  0.300 |ddv_scf|^2 =  1.554E-12

     Pert. #  1: Fermi energy shift (Ry) =     7.9739E-03     1.2925E-26

      iter #   6 total cpu time : 11597.5 secs   av.it.:  19.6
      thresh= 1.247E-07 alpha_mix =  0.300 |ddv_scf|^2 =  1.395E-13

     Pert. #  1: Fermi energy shift (Ry) =     7.9042E-03    -1.6156E-27

      iter #   7 total cpu time : 11652.3 secs   av.it.:  19.4
      thresh= 3.735E-08 alpha_mix =  0.300 |ddv_scf|^2 =  1.815E-14

     Pert. #  1: Fermi energy shift (Ry) =     7.8899E-03    -8.0779E-28

      iter #   8 total cpu time : 11706.5 secs   av.it.:  19.1
      thresh= 1.347E-08 alpha_mix =  0.300 |ddv_scf|^2 =  3.735E-15

     End of self-consistent calculation

     Convergence has been achieved 


     Representation #  29 mode #  29

     Self-consistent Calculation

     Pert. #  1: Fermi energy shift (Ry) =     7.7272E-03     0.0000E+00

      iter #   1 total cpu time : 11738.6 secs   av.it.:   7.4
      thresh= 1.000E-02 alpha_mix =  0.300 |ddv_scf|^2 =  2.380E-08

     Pert. #  1: Fermi energy shift (Ry) =     9.6799E-03     0.0000E+00

      iter #   2 total cpu time : 11792.5 secs   av.it.:  18.9
      thresh= 1.543E-05 alpha_mix =  0.300 |ddv_scf|^2 =  1.778E-09

     Pert. #  1: Fermi energy shift (Ry) =     1.1081E-02     0.0000E+00

      iter #   3 total cpu time : 11848.2 secs   av.it.:  19.1
      thresh= 4.217E-06 alpha_mix =  0.300 |ddv_scf|^2 =  2.160E-10

     Pert. #  1: Fermi energy shift (Ry) =     1.2089E-02     0.0000E+00

      iter #   4 total cpu time : 11905.8 secs   av.it.:  19.7
      thresh= 1.470E-06 alpha_mix =  0.300 |ddv_scf|^2 =  1.651E-11

     Pert. #  1: Fermi energy shift (Ry) =     1.2233E-02     0.0000E+00

      iter #   5 total cpu time : 11962.0 secs   av.it.:  19.2
      thresh= 4.064E-07 alpha_mix =  0.300 |ddv_scf|^2 =  3.032E-12

     Pert. #  1: Fermi energy shift (Ry) =     1.2146E-02     0.0000E+00

      iter #   6 total cpu time : 12019.5 secs   av.it.:  19.7
      thresh= 1.741E-07 alpha_mix =  0.300 |ddv_scf|^2 =  1.833E-13

     Pert. #  1: Fermi energy shift (Ry) =     1.2041E-02     0.0000E+00

      iter #   7 total cpu time : 12074.2 secs   av.it.:  19.3
      thresh= 4.281E-08 alpha_mix =  0.300 |ddv_scf|^2 =  2.222E-14

     Pert. #  1: Fermi energy shift (Ry) =     1.2002E-02     0.0000E+00

      iter #   8 total cpu time : 12129.2 secs   av.it.:  19.4
      thresh= 1.490E-08 alpha_mix =  0.300 |ddv_scf|^2 =  3.002E-15

     End of self-consistent calculation

     Convergence has been achieved 


     Representation #  30 mode #  30

     Self-consistent Calculation

     Pert. #  1: Fermi energy shift (Ry) =    -4.8887E-03     8.4703E-22

      iter #   1 total cpu time : 12158.2 secs   av.it.:   6.4
      thresh= 1.000E-02 alpha_mix =  0.300 |ddv_scf|^2 =  9.831E-09

     Pert. #  1: Fermi energy shift (Ry) =    -6.8659E-03    -1.6544E-24

      iter #   2 total cpu time : 12212.6 secs   av.it.:  18.6
      thresh= 9.915E-06 alpha_mix =  0.300 |ddv_scf|^2 =  1.796E-09

     Pert. #  1: Fermi energy shift (Ry) =    -8.3337E-03    -1.0340E-25

      iter #   3 total cpu time : 12268.6 secs   av.it.:  19.2
      thresh= 4.238E-06 alpha_mix =  0.300 |ddv_scf|^2 =  1.307E-10

     Pert. #  1: Fermi energy shift (Ry) =    -8.4807E-03    -5.1699E-26

      iter #   4 total cpu time : 12323.3 secs   av.it.:  19.3
      thresh= 1.143E-06 alpha_mix =  0.300 |ddv_scf|^2 =  1.188E-11

     Pert. #  1: Fermi energy shift (Ry) =    -8.1814E-03    -2.5849E-26

      iter #   5 total cpu time : 12379.6 secs   av.it.:  19.3
      thresh= 3.447E-07 alpha_mix =  0.300 |ddv_scf|^2 =  1.549E-12

     Pert. #  1: Fermi energy shift (Ry) =    -7.9713E-03    -1.2925E-26

      iter #   6 total cpu time : 12436.6 secs   av.it.:  19.6
      thresh= 1.245E-07 alpha_mix =  0.300 |ddv_scf|^2 =  1.396E-13

     Pert. #  1: Fermi energy shift (Ry) =    -7.9017E-03     1.6156E-27

      iter #   7 total cpu time : 12491.3 secs   av.it.:  19.4
      thresh= 3.736E-08 alpha_mix =  0.300 |ddv_scf|^2 =  1.818E-14

     Pert. #  1: Fermi energy shift (Ry) =    -7.8874E-03     1.6156E-27

      iter #   8 total cpu time : 12545.6 secs   av.it.:  19.1
      thresh= 1.348E-08 alpha_mix =  0.300 |ddv_scf|^2 =  3.741E-15

     End of self-consistent calculation

     Convergence has been achieved 

     Number of q in the star =    1
     List of q in the star:
          1   0.000000000   0.000000000   0.000000000

     Diagonalizing the dynamical matrix

     q = (    0.000000000   0.000000000   0.000000000 ) 

 **************************************************************************
     freq (    1) =     -36.357234 [THz] =   -1212.746792 [cm-1]
     freq (    2) =     -36.355771 [THz] =   -1212.697993 [cm-1]
     freq (    3) =     -27.890860 [THz] =    -930.338958 [cm-1]
     freq (    4) =     -26.459740 [THz] =    -882.601917 [cm-1]
     freq (    5) =     -26.445319 [THz] =    -882.120882 [cm-1]
     freq (    6) =     -26.142497 [THz] =    -872.019824 [cm-1]
     freq (    7) =     -23.995354 [THz] =    -800.398860 [cm-1]
     freq (    8) =     -23.958166 [THz] =    -799.158411 [cm-1]
     freq (    9) =     -16.784744 [THz] =    -559.878788 [cm-1]
     freq (   10) =     -16.771153 [THz] =    -559.425441 [cm-1]
     freq (   11) =     -14.066248 [THz] =    -469.199540 [cm-1]
     freq (   12) =     -14.023898 [THz] =    -467.786872 [cm-1]
     freq (   13) =      -6.813459 [THz] =    -227.272525 [cm-1]
     freq (   14) =      -6.808482 [THz] =    -227.106520 [cm-1]
     freq (   15) =       0.207469 [THz] =       6.920430 [cm-1]
     freq (   16) =       0.208202 [THz] =       6.944862 [cm-1]
     freq (   17) =       0.318341 [THz] =      10.618698 [cm-1]
     freq (   18) =       5.156036 [THz] =     171.986832 [cm-1]
     freq (   19) =      10.824536 [THz] =     361.067656 [cm-1]
     freq (   20) =      10.827252 [THz] =     361.158236 [cm-1]
     freq (   21) =      14.969740 [THz] =     499.336783 [cm-1]
     freq (   22) =      23.956680 [THz] =     799.108837 [cm-1]
     freq (   23) =      35.040345 [THz] =    1168.820097 [cm-1]
     freq (   24) =      36.638224 [THz] =    1222.119611 [cm-1]
     freq (   25) =      49.068621 [THz] =    1636.753008 [cm-1]
     freq (   26) =      49.080954 [THz] =    1637.164410 [cm-1]
     freq (   27) =      58.315935 [THz] =    1945.210194 [cm-1]
     freq (   28) =      58.319887 [THz] =    1945.342039 [cm-1]
     freq (   29) =      58.612202 [THz] =    1955.092627 [cm-1]
     freq (   30) =      67.909136 [THz] =    2265.204942 [cm-1]
 **************************************************************************

     Mode symmetry, C_1 (1)     point group:

     freq (   1-   1) =      -1212.7  [cm-1]   --> A               I+R
     freq (   2-   2) =      -1212.7  [cm-1]   --> A               I+R
     freq (   3-   3) =       -930.3  [cm-1]   --> A               I+R
     freq (   4-   4) =       -882.6  [cm-1]   --> A               I+R
     freq (   5-   5) =       -882.1  [cm-1]   --> A               I+R
     freq (   6-   6) =       -872.0  [cm-1]   --> A               I+R
     freq (   7-   7) =       -800.4  [cm-1]   --> A               I+R
     freq (   8-   8) =       -799.2  [cm-1]   --> A               I+R
     freq (   9-   9) =       -559.9  [cm-1]   --> A               I+R
     freq (  10-  10) =       -559.4  [cm-1]   --> A               I+R
     freq (  11-  11) =       -469.2  [cm-1]   --> A               I+R
     freq (  12-  12) =       -467.8  [cm-1]   --> A               I+R
     freq (  13-  13) =       -227.3  [cm-1]   --> A               I+R
     freq (  14-  14) =       -227.1  [cm-1]   --> A               I+R
     freq (  15-  15) =          6.9  [cm-1]   --> A               I+R
     freq (  16-  16) =          6.9  [cm-1]   --> A               I+R
     freq (  17-  17) =         10.6  [cm-1]   --> A               I+R
     freq (  18-  18) =        172.0  [cm-1]   --> A               I+R
     freq (  19-  19) =        361.1  [cm-1]   --> A               I+R
     freq (  20-  20) =        361.2  [cm-1]   --> A               I+R
     freq (  21-  21) =        499.3  [cm-1]   --> A               I+R
     freq (  22-  22) =        799.1  [cm-1]   --> A               I+R
     freq (  23-  23) =       1168.8  [cm-1]   --> A               I+R
     freq (  24-  24) =       1222.1  [cm-1]   --> A               I+R
     freq (  25-  25) =       1636.8  [cm-1]   --> A               I+R
     freq (  26-  26) =       1637.2  [cm-1]   --> A               I+R
     freq (  27-  27) =       1945.2  [cm-1]   --> A               I+R
     freq (  28-  28) =       1945.3  [cm-1]   --> A               I+R
     freq (  29-  29) =       1955.1  [cm-1]   --> A               I+R
     freq (  30-  30) =       2265.2  [cm-1]   --> A               I+R

     Gaussian Broadening:   0.005 Ry, ngauss=   0
     DOS = 16.531348 states/spin/Ry/Unit Cell at Ef=  6.594764 eV
     double delta at Ef =**********
     lambda(    1)= -0.0055   gamma=  113.95 GHz
     lambda(    2)= -0.0055   gamma=  114.75 GHz
     lambda(    3)= -0.0031   gamma=   38.01 GHz
     lambda(    4)= -1.1894   gamma=13145.65 GHz
     lambda(    5)= -1.1935   gamma=13177.12 GHz
     lambda(    6)= -0.2356   gamma= 2541.77 GHz
     lambda(    7)= -0.5493   gamma= 4992.90 GHz
     lambda(    8)= -0.5504   gamma= 4987.26 GHz
     lambda(    9)= -0.0011   gamma=    4.89 GHz
     lambda(   10)= -0.0012   gamma=    5.15 GHz
     lambda(   11)= -0.0268   gamma=   83.81 GHz
     lambda(   12)= -0.0274   gamma=   85.07 GHz
     lambda(   13)= -2.2712   gamma= 1664.47 GHz
     lambda(   14)= -2.2783   gamma= 1667.23 GHz
     lambda(   15)=  0.0000   gamma=    0.00 GHz
     lambda(   16)=  0.0000   gamma=    0.00 GHz
     lambda(   17)=  0.0000   gamma=    0.01 GHz
     lambda(   18)=  0.0276   gamma=   11.57 GHz
     lambda(   19)=  0.0103   gamma=   19.14 GHz
     lambda(   20)=  0.0107   gamma=   19.79 GHz
     lambda(   21)=  0.0051   gamma=   18.12 GHz
     lambda(   22)=  0.2079   gamma= 1883.57 GHz
     lambda(   23)=  0.0000   gamma=    0.13 GHz
     lambda(   24)=  0.0400   gamma=  848.10 GHz
     lambda(   25)=  0.3195   gamma=12143.50 GHz
     lambda(   26)=  0.3170   gamma=12055.46 GHz
     lambda(   27)=  0.0017   gamma=   91.60 GHz
     lambda(   28)=  0.0018   gamma=   94.04 GHz
     lambda(   29)=  0.1295   gamma= 7021.23 GHz
     lambda(   30)=  0.0004   gamma=   26.16 GHz

     Gaussian Broadening:   0.010 Ry, ngauss=   0
     DOS = 17.332241 states/spin/Ry/Unit Cell at Ef=  6.591306 eV
     double delta at Ef =**********
     lambda(    1)= -0.0177   gamma=  386.19 GHz
     lambda(    2)= -0.0177   gamma=  387.13 GHz
     lambda(    3)= -0.0056   gamma=   72.12 GHz
     lambda(    4)= -0.5683   gamma= 6584.79 GHz
     lambda(    5)= -0.5680   gamma= 6574.25 GHz
     lambda(    6)= -0.1199   gamma= 1356.23 GHz
     lambda(    7)= -0.3068   gamma= 2923.41 GHz
     lambda(    8)= -0.3065   gamma= 2912.30 GHz
     lambda(    9)= -0.0075   gamma=   35.17 GHz
     lambda(   10)= -0.0075   gamma=   34.92 GHz
     lambda(   11)= -0.1236   gamma=  404.88 GHz
     lambda(   12)= -0.1247   gamma=  405.80 GHz
     lambda(   13)= -1.2662   gamma=  972.92 GHz
     lambda(   14)= -1.2665   gamma=  971.72 GHz
     lambda(   15)=  0.0000   gamma=    0.02 GHz
     lambda(   16)=  0.0000   gamma=    0.02 GHz
     lambda(   17)=  0.0000   gamma=    0.02 GHz
     lambda(   18)=  0.0961   gamma=   42.26 GHz
     lambda(   19)=  0.0507   gamma=   98.34 GHz
     lambda(   20)=  0.0509   gamma=   98.73 GHz
     lambda(   21)=  0.0405   gamma=  150.30 GHz
     lambda(   22)=  0.0959   gamma=  911.04 GHz
     lambda(   23)=  0.0001   gamma=    1.64 GHz
     lambda(   24)=  0.0177   gamma=  393.10 GHz
     lambda(   25)=  0.1747   gamma= 6960.28 GHz
     lambda(   26)=  0.1744   gamma= 6955.15 GHz
     lambda(   27)=  0.0060   gamma=  334.93 GHz
     lambda(   28)=  0.0060   gamma=  335.71 GHz
     lambda(   29)=  0.0695   gamma= 3950.38 GHz
     lambda(   30)=  0.0021   gamma=  162.47 GHz

     Gaussian Broadening:   0.015 Ry, ngauss=   0
     DOS = 16.728256 states/spin/Ry/Unit Cell at Ef=  6.587085 eV
     double delta at Ef =**********
     lambda(    1)= -0.0201   gamma=  425.08 GHz
     lambda(    2)= -0.0202   gamma=  425.57 GHz
     lambda(    3)= -0.0068   gamma=   84.69 GHz
     lambda(    4)= -0.3939   gamma= 4405.27 GHz
     lambda(    5)= -0.3935   gamma= 4395.93 GHz
     lambda(    6)= -0.0863   gamma=  942.38 GHz
     lambda(    7)= -0.2423   gamma= 2229.04 GHz
     lambda(    8)= -0.2421   gamma= 2219.56 GHz
     lambda(    9)= -0.0125   gamma=   56.08 GHz
     lambda(   10)= -0.0123   gamma=   55.11 GHz
     lambda(   11)= -0.1592   gamma=  503.11 GHz
     lambda(   12)= -0.1602   gamma=  503.26 GHz
     lambda(   13)= -0.9471   gamma=  702.36 GHz
     lambda(   14)= -0.9476   gamma=  701.71 GHz
     lambda(   15)=  0.0000   gamma=    0.05 GHz
     lambda(   16)=  0.0000   gamma=    0.05 GHz
     lambda(   17)=  0.0000   gamma=    0.04 GHz
     lambda(   18)=  0.1102   gamma=   46.79 GHz
     lambda(   19)=  0.0757   gamma=  141.64 GHz
     lambda(   20)=  0.0758   gamma=  141.86 GHz
     lambda(   21)=  0.0602   gamma=  215.40 GHz
     lambda(   22)=  0.0650   gamma=  595.49 GHz
     lambda(   23)=  0.0002   gamma=    3.53 GHz
     lambda(   24)=  0.0118   gamma=  252.47 GHz
     lambda(   25)=  0.1195   gamma= 4596.64 GHz
     lambda(   26)=  0.1195   gamma= 4598.14 GHz
     lambda(   27)=  0.0104   gamma=  566.02 GHz
     lambda(   28)=  0.0104   gamma=  565.89 GHz
     lambda(   29)=  0.0486   gamma= 2666.04 GHz
     lambda(   30)=  0.0029   gamma=  214.78 GHz

     Gaussian Broadening:   0.020 Ry, ngauss=   0
     DOS = 16.504277 states/spin/Ry/Unit Cell at Ef=  6.583337 eV
     double delta at Ef =936.920588
     lambda(    1)= -0.0216   gamma=  449.19 GHz
     lambda(    2)= -0.0216   gamma=  449.36 GHz
     lambda(    3)= -0.0075   gamma=   91.80 GHz
     lambda(    4)= -0.3102   gamma= 3422.38 GHz
     lambda(    5)= -0.3099   gamma= 3415.68 GHz
     lambda(    6)= -0.0670   gamma=  721.85 GHz
     lambda(    7)= -0.2082   gamma= 1889.24 GHz
     lambda(    8)= -0.2080   gamma= 1881.41 GHz
     lambda(    9)= -0.0162   gamma=   71.83 GHz
     lambda(   10)= -0.0159   gamma=   70.48 GHz
     lambda(   11)= -0.1693   gamma=  527.80 GHz
     lambda(   12)= -0.1702   gamma=  527.63 GHz
     lambda(   13)= -0.7573   gamma=  554.05 GHz
     lambda(   14)= -0.7581   gamma=  553.86 GHz
     lambda(   15)=  0.0000   gamma=    0.08 GHz
     lambda(   16)=  0.0000   gamma=    0.08 GHz
     lambda(   17)=  0.0000   gamma=    0.07 GHz
     lambda(   18)=  0.1092   gamma=   45.75 GHz
     lambda(   19)=  0.0832   gamma=  153.58 GHz
     lambda(   20)=  0.0832   gamma=  153.81 GHz
     lambda(   21)=  0.0660   gamma=  233.15 GHz
     lambda(   22)=  0.0543   gamma=  491.42 GHz
     lambda(   23)=  0.0003   gamma=    5.44 GHz
     lambda(   24)=  0.0091   gamma=  192.75 GHz
     lambda(   25)=  0.0912   gamma= 3461.15 GHz
     lambda(   26)=  0.0912   gamma= 3462.65 GHz
     lambda(   27)=  0.0140   gamma=  748.36 GHz
     lambda(   28)=  0.0140   gamma=  748.06 GHz
     lambda(   29)=  0.0374   gamma= 2025.15 GHz
     lambda(   30)=  0.0030   gamma=  217.67 GHz

     Gaussian Broadening:   0.025 Ry, ngauss=   0
     DOS = 16.399433 states/spin/Ry/Unit Cell at Ef=  6.581873 eV
     double delta at Ef =819.183106
     lambda(    1)= -0.0229   gamma=  473.94 GHz
     lambda(    2)= -0.0229   gamma=  474.00 GHz
     lambda(    3)= -0.0081   gamma=   98.16 GHz
     lambda(    4)= -0.2639   gamma= 2893.86 GHz
     lambda(    5)= -0.2638   gamma= 2889.24 GHz
     lambda(    6)= -0.0555   gamma=  594.03 GHz
     lambda(    7)= -0.1856   gamma= 1673.73 GHz
     lambda(    8)= -0.1855   gamma= 1667.41 GHz
     lambda(    9)= -0.0192   gamma=   84.50 GHz
     lambda(   10)= -0.0188   gamma=   82.89 GHz
     lambda(   11)= -0.1728   gamma=  535.48 GHz
     lambda(   12)= -0.1738   gamma=  535.27 GHz
     lambda(   13)= -0.6423   gamma=  466.98 GHz
     lambda(   14)= -0.6433   gamma=  466.99 GHz
     lambda(   15)=  0.0000   gamma=    0.11 GHz
     lambda(   16)=  0.0000   gamma=    0.11 GHz
     lambda(   17)=  0.0000   gamma=    0.09 GHz
     lambda(   18)=  0.1068   gamma=   44.48 GHz
     lambda(   19)=  0.0852   gamma=  156.32 GHz
     lambda(   20)=  0.0853   gamma=  156.55 GHz
     lambda(   21)=  0.0687   gamma=  241.15 GHz
     lambda(   22)=  0.0501   gamma=  450.17 GHz
     lambda(   23)=  0.0004   gamma=    7.20 GHz
     lambda(   24)=  0.0078   gamma=  163.84 GHz
     lambda(   25)=  0.0757   gamma= 2855.83 GHz
     lambda(   26)=  0.0757   gamma= 2856.60 GHz
     lambda(   27)=  0.0158   gamma=  842.65 GHz
     lambda(   28)=  0.0158   gamma=  842.33 GHz
     lambda(   29)=  0.0310   gamma= 1666.12 GHz
     lambda(   30)=  0.0029   gamma=  212.83 GHz

     Gaussian Broadening:   0.030 Ry, ngauss=   0
     DOS = 16.388923 states/spin/Ry/Unit Cell at Ef=  6.582593 eV
     double delta at Ef =744.055012
     lambda(    1)= -0.0245   gamma=  507.19 GHz
     lambda(    2)= -0.0245   gamma=  507.26 GHz
     lambda(    3)= -0.0092   gamma=  112.21 GHz
     lambda(    4)= -0.2358   gamma= 2584.09 GHz
     lambda(    5)= -0.2358   gamma= 2580.84 GHz
     lambda(    6)= -0.0482   gamma=  515.70 GHz
     lambda(    7)= -0.1689   gamma= 1522.41 GHz
     lambda(    8)= -0.1689   gamma= 1517.28 GHz
     lambda(    9)= -0.0214   gamma=   94.35 GHz
     lambda(   10)= -0.0210   gamma=   92.59 GHz
     lambda(   11)= -0.1736   gamma=  537.67 GHz
     lambda(   12)= -0.1746   gamma=  537.53 GHz
     lambda(   13)= -0.5683   gamma=  412.86 GHz
     lambda(   14)= -0.5692   gamma=  412.94 GHz
     lambda(   15)=  0.0000   gamma=    0.16 GHz
     lambda(   16)=  0.0000   gamma=    0.16 GHz
     lambda(   17)=  0.0000   gamma=    0.12 GHz
     lambda(   18)=  0.1061   gamma=   44.13 GHz
     lambda(   19)=  0.0868   gamma=  159.16 GHz
     lambda(   20)=  0.0869   gamma=  159.39 GHz
     lambda(   21)=  0.0709   gamma=  248.65 GHz
     lambda(   22)=  0.0471   gamma=  423.51 GHz
     lambda(   23)=  0.0005   gamma=    8.92 GHz
     lambda(   24)=  0.0071   gamma=  149.19 GHz
     lambda(   25)=  0.0664   gamma= 2501.91 GHz
     lambda(   26)=  0.0664   gamma= 2502.12 GHz
     lambda(   27)=  0.0165   gamma=  880.66 GHz
     lambda(   28)=  0.0165   gamma=  880.35 GHz
     lambda(   29)=  0.0267   gamma= 1433.83 GHz
     lambda(   30)=  0.0029   gamma=  209.66 GHz

     Gaussian Broadening:   0.035 Ry, ngauss=   0
     DOS = 16.477623 states/spin/Ry/Unit Cell at Ef=  6.585333 eV
     double delta at Ef =692.246998
     lambda(    1)= -0.0261   gamma=  542.83 GHz
     lambda(    2)= -0.0261   gamma=  542.93 GHz
     lambda(    3)= -0.0108   gamma=  132.16 GHz
     lambda(    4)= -0.2166   gamma= 2386.02 GHz
     lambda(    5)= -0.2166   gamma= 2383.62 GHz
     lambda(    6)= -0.0432   gamma=  464.41 GHz
     lambda(    7)= -0.1556   gamma= 1409.58 GHz
     lambda(    8)= -0.1556   gamma= 1405.35 GHz
     lambda(    9)= -0.0229   gamma=  101.59 GHz
     lambda(   10)= -0.0225   gamma=   99.75 GHz
     lambda(   11)= -0.1714   gamma=  533.55 GHz
     lambda(   12)= -0.1724   gamma=  533.53 GHz
     lambda(   13)= -0.5167   gamma=  377.40 GHz
     lambda(   14)= -0.5176   gamma=  377.52 GHz
     lambda(   15)=  0.0000   gamma=    0.22 GHz
     lambda(   16)=  0.0000   gamma=    0.22 GHz
     lambda(   17)=  0.0000   gamma=    0.15 GHz
     lambda(   18)=  0.1060   gamma=   44.36 GHz
     lambda(   19)=  0.0881   gamma=  162.45 GHz
     lambda(   20)=  0.0882   gamma=  162.68 GHz
     lambda(   21)=  0.0721   gamma=  254.07 GHz
     lambda(   22)=  0.0442   gamma=  399.32 GHz
     lambda(   23)=  0.0006   gamma=   10.63 GHz
     lambda(   24)=  0.0067   gamma=  141.74 GHz
     lambda(   25)=  0.0600   gamma= 2272.14 GHz
     lambda(   26)=  0.0599   gamma= 2272.02 GHz
     lambda(   27)=  0.0166   gamma=  886.87 GHz
     lambda(   28)=  0.0166   gamma=  886.57 GHz
     lambda(   29)=  0.0234   gamma= 1265.09 GHz
     lambda(   30)=  0.0029   gamma=  207.23 GHz

     Gaussian Broadening:   0.040 Ry, ngauss=   0
     DOS = 16.619161 states/spin/Ry/Unit Cell at Ef=  6.589869 eV
     double delta at Ef =652.989491
     lambda(    1)= -0.0273   gamma=  573.53 GHz
     lambda(    2)= -0.0273   gamma=  573.64 GHz
     lambda(    3)= -0.0124   gamma=  153.55 GHz
     lambda(    4)= -0.2021   gamma= 2246.04 GHz
     lambda(    5)= -0.2022   gamma= 2244.15 GHz
     lambda(    6)= -0.0395   gamma=  428.35 GHz
     lambda(    7)= -0.1444   gamma= 1319.52 GHz
     lambda(    8)= -0.1445   gamma= 1315.97 GHz
     lambda(    9)= -0.0238   gamma=  106.62 GHz
     lambda(   10)= -0.0235   gamma=  104.76 GHz
     lambda(   11)= -0.1666   gamma=  523.06 GHz
     lambda(   12)= -0.1676   gamma=  523.16 GHz
     lambda(   13)= -0.4787   gamma=  352.70 GHz
     lambda(   14)= -0.4796   gamma=  352.83 GHz
     lambda(   15)=  0.0000   gamma=    0.28 GHz
     lambda(   16)=  0.0000   gamma=    0.28 GHz
     lambda(   17)=  0.0000   gamma=    0.18 GHz
     lambda(   18)=  0.1060   gamma=   44.73 GHz
     lambda(   19)=  0.0887   gamma=  164.85 GHz
     lambda(   20)=  0.0887   gamma=  165.08 GHz
     lambda(   21)=  0.0718   gamma=  255.38 GHz
     lambda(   22)=  0.0413   gamma=  375.73 GHz
     lambda(   23)=  0.0006   gamma=   12.37 GHz
[...]

     Representation    20      1 modes -  To be done

     Representation    21      1 modes -  To be done

     Representation    22      1 modes -  To be done

     Representation    23      1 modes -  To be done

     Representation    24      1 modes -  To be done

     Representation    25      1 modes -  To be done

     Representation    26      1 modes -  To be done

     Representation    27      1 modes -  To be done

     Representation    28      1 modes -  To be done

     Representation    29      1 modes -  To be done

     Representation    30      1 modes -  To be done



     Alpha used in Ewald sum =   2.8000
     PHONON       :      3h20m CPU      3h35m WALL



     Representation #   1 mode #   1

     Self-consistent Calculation

      iter #   1 total cpu time : 12959.1 secs   av.it.:  11.8
      thresh= 1.000E-02 alpha_mix =  0.300 |ddv_scf|^2 =  4.603E-05

      iter #   2 total cpu time : 13013.3 secs   av.it.:  18.1
      thresh= 6.785E-04 alpha_mix =  0.300 |ddv_scf|^2 =  1.947E-04

      iter #   3 total cpu time : 13060.1 secs   av.it.:  15.9
      thresh= 1.395E-03 alpha_mix =  0.300 |ddv_scf|^2 =  7.377E-08

      iter #   4 total cpu time : 13112.9 secs   av.it.:  18.3
      thresh= 2.716E-05 alpha_mix =  0.300 |ddv_scf|^2 =  9.120E-09

      iter #   5 total cpu time : 13167.8 secs   av.it.:  19.0
      thresh= 9.550E-06 alpha_mix =  0.300 |ddv_scf|^2 =  1.114E-09

      iter #   6 total cpu time : 13223.3 secs   av.it.:  19.2
      thresh= 3.338E-06 alpha_mix =  0.300 |ddv_scf|^2 =  1.401E-10

      iter #   7 total cpu time : 13279.1 secs   av.it.:  19.3
      thresh= 1.183E-06 alpha_mix =  0.300 |ddv_scf|^2 =  7.381E-11

      iter #   8 total cpu time : 13330.8 secs   av.it.:  17.7
      thresh= 8.591E-07 alpha_mix =  0.300 |ddv_scf|^2 =  6.383E-12

      iter #   9 total cpu time : 13384.9 secs   av.it.:  18.1
      thresh= 2.526E-07 alpha_mix =  0.300 |ddv_scf|^2 =  4.923E-12

      iter #  10 total cpu time : 13437.0 secs   av.it.:  17.6
      thresh= 2.219E-07 alpha_mix =  0.300 |ddv_scf|^2 =  4.055E-13

      iter #  11 total cpu time : 13494.8 secs   av.it.:  19.4
      thresh= 6.368E-08 alpha_mix =  0.300 |ddv_scf|^2 =  3.437E-14

      iter #  12 total cpu time : 13549.0 secs   av.it.:  18.6
      thresh= 1.854E-08 alpha_mix =  0.300 |ddv_scf|^2 =  7.911E-15

     End of self-consistent calculation

     Convergence has been achieved 


     Representation #   2 mode #   2

     Self-consistent Calculation

      iter #   1 total cpu time : 13591.2 secs   av.it.:  11.8
      thresh= 1.000E-02 alpha_mix =  0.300 |ddv_scf|^2 =  4.604E-05

      iter #   2 total cpu time : 13643.6 secs   av.it.:  18.1
      thresh= 6.785E-04 alpha_mix =  0.300 |ddv_scf|^2 =  1.947E-04

      iter #   3 total cpu time : 13690.4 secs   av.it.:  15.9
      thresh= 1.395E-03 alpha_mix =  0.300 |ddv_scf|^2 =  7.381E-08

      iter #   4 total cpu time : 13745.1 secs   av.it.:  18.3
      thresh= 2.717E-05 alpha_mix =  0.300 |ddv_scf|^2 =  9.120E-09

      iter #   5 total cpu time : 13801.8 secs   av.it.:  19.0
      thresh= 9.550E-06 alpha_mix =  0.300 |ddv_scf|^2 =  1.114E-09

      iter #   6 total cpu time : 13857.2 secs   av.it.:  19.2
      thresh= 3.338E-06 alpha_mix =  0.300 |ddv_scf|^2 =  1.393E-10

      iter #   7 total cpu time : 13912.8 secs   av.it.:  19.3
      thresh= 1.180E-06 alpha_mix =  0.300 |ddv_scf|^2 =  7.034E-11

      iter #   8 total cpu time : 13966.0 secs   av.it.:  17.7
      thresh= 8.387E-07 alpha_mix =  0.300 |ddv_scf|^2 =  6.389E-12

      iter #   9 total cpu time : 14020.4 secs   av.it.:  18.0
      thresh= 2.528E-07 alpha_mix =  0.300 |ddv_scf|^2 =  4.893E-12

      iter #  10 total cpu time : 14073.6 secs   av.it.:  17.7
      thresh= 2.212E-07 alpha_mix =  0.300 |ddv_scf|^2 =  4.060E-13

      iter #  11 total cpu time : 14131.4 secs   av.it.:  19.4
      thresh= 6.372E-08 alpha_mix =  0.300 |ddv_scf|^2 =  3.426E-14

      iter #  12 total cpu time : 14187.2 secs   av.it.:  18.6
      thresh= 1.851E-08 alpha_mix =  0.300 |ddv_scf|^2 =  7.890E-15

     End of self-consistent calculation

     Convergence has been achieved 


     Representation #   3 mode #   3

     Self-consistent Calculation

      iter #   1 total cpu time : 14229.2 secs   av.it.:  11.6
      thresh= 1.000E-02 alpha_mix =  0.300 |ddv_scf|^2 =  4.033E-05

      iter #   2 total cpu time : 14281.7 secs   av.it.:  18.1
      thresh= 6.351E-04 alpha_mix =  0.300 |ddv_scf|^2 =  1.752E-04

      iter #   3 total cpu time : 14328.6 secs   av.it.:  15.8
      thresh= 1.324E-03 alpha_mix =  0.300 |ddv_scf|^2 =  4.532E-08

      iter #   4 total cpu time : 14383.1 secs   av.it.:  18.9
      thresh= 2.129E-05 alpha_mix =  0.300 |ddv_scf|^2 =  8.879E-09

      iter #   5 total cpu time : 14438.9 secs   av.it.:  18.6
      thresh= 9.423E-06 alpha_mix =  0.300 |ddv_scf|^2 =  1.496E-09

      iter #   6 total cpu time : 14495.1 secs   av.it.:  19.5
      thresh= 3.868E-06 alpha_mix =  0.300 |ddv_scf|^2 =  7.213E-11

      iter #   7 total cpu time : 14550.0 secs   av.it.:  18.9
      thresh= 8.493E-07 alpha_mix =  0.300 |ddv_scf|^2 =  5.595E-11

      iter #   8 total cpu time : 14603.5 secs   av.it.:  17.8
      thresh= 7.480E-07 alpha_mix =  0.300 |ddv_scf|^2 =  2.980E-12

      iter #   9 total cpu time : 14657.5 secs   av.it.:  18.7
      thresh= 1.726E-07 alpha_mix =  0.300 |ddv_scf|^2 =  4.674E-12

      iter #  10 total cpu time : 14709.4 secs   av.it.:  17.4
      thresh= 2.162E-07 alpha_mix =  0.300 |ddv_scf|^2 =  2.177E-13

      iter #  11 total cpu time : 14764.7 secs   av.it.:  18.5
      thresh= 4.666E-08 alpha_mix =  0.300 |ddv_scf|^2 =  4.530E-14

      iter #  12 total cpu time : 14820.9 secs   av.it.:  18.8
      thresh= 2.128E-08 alpha_mix =  0.300 |ddv_scf|^2 =  1.749E-14

      iter #  13 total cpu time : 14876.2 secs   av.it.:  19.2
      thresh= 1.323E-08 alpha_mix =  0.300 |ddv_scf|^2 =  6.262E-15

     End of self-consistent calculation

     Convergence has been achieved 


     Representation #   4 mode #   4

     Self-consistent Calculation

      iter #   1 total cpu time : 14908.9 secs   av.it.:   7.7
      thresh= 1.000E-02 alpha_mix =  0.300 |ddv_scf|^2 =  1.386E-06

      iter #   2 total cpu time : 14962.8 secs   av.it.:  17.9
      thresh= 1.177E-04 alpha_mix =  0.300 |ddv_scf|^2 =  2.850E-06

      iter #   3 total cpu time : 15010.8 secs   av.it.:  16.3
      thresh= 1.688E-04 alpha_mix =  0.300 |ddv_scf|^2 =  2.232E-09

      iter #   4 total cpu time : 15063.4 secs   av.it.:  18.1
      thresh= 4.724E-06 alpha_mix =  0.300 |ddv_scf|^2 =  6.768E-10

      iter #   5 total cpu time : 15113.9 secs   av.it.:  17.3
      thresh= 2.601E-06 alpha_mix =  0.300 |ddv_scf|^2 =  1.402E-10

      iter #   6 total cpu time : 15165.8 secs   av.it.:  17.8
      thresh= 1.184E-06 alpha_mix =  0.300 |ddv_scf|^2 =  2.803E-11

      iter #   7 total cpu time : 15216.5 secs   av.it.:  16.7
      thresh= 5.294E-07 alpha_mix =  0.300 |ddv_scf|^2 =  2.902E-12

      iter #   8 total cpu time : 15269.2 secs   av.it.:  18.0
      thresh= 1.703E-07 alpha_mix =  0.300 |ddv_scf|^2 =  2.608E-13

      iter #   9 total cpu time : 15325.8 secs   av.it.:  19.7
      thresh= 5.107E-08 alpha_mix =  0.300 |ddv_scf|^2 =  1.283E-13

      iter #  10 total cpu time : 15377.0 secs   av.it.:  17.6
      thresh= 3.582E-08 alpha_mix =  0.300 |ddv_scf|^2 =  8.330E-15

     End of self-consistent calculation

     Convergence has been achieved 


     Representation #   5 mode #   5

     Self-consistent Calculation

      iter #   1 total cpu time : 15409.6 secs   av.it.:   7.7
      thresh= 1.000E-02 alpha_mix =  0.300 |ddv_scf|^2 =  1.387E-06

      iter #   2 total cpu time : 15461.8 secs   av.it.:  17.9
      thresh= 1.178E-04 alpha_mix =  0.300 |ddv_scf|^2 =  2.850E-06

      iter #   3 total cpu time : 15511.5 secs   av.it.:  16.3
      thresh= 1.688E-04 alpha_mix =  0.300 |ddv_scf|^2 =  2.232E-09

      iter #   4 total cpu time : 15565.7 secs   av.it.:  18.1
      thresh= 4.724E-06 alpha_mix =  0.300 |ddv_scf|^2 =  6.768E-10

      iter #   5 total cpu time : 15617.8 secs   av.it.:  17.3
      thresh= 2.602E-06 alpha_mix =  0.300 |ddv_scf|^2 =  1.407E-10

      iter #   6 total cpu time : 15671.7 secs   av.it.:  17.9
      thresh= 1.186E-06 alpha_mix =  0.300 |ddv_scf|^2 =  4.075E-11

      iter #   7 total cpu time : 15722.0 secs   av.it.:  16.5
      thresh= 6.383E-07 alpha_mix =  0.300 |ddv_scf|^2 =  2.326E-12

      iter #   8 total cpu time : 15774.8 secs   av.it.:  18.2
      thresh= 1.525E-07 alpha_mix =  0.300 |ddv_scf|^2 =  2.597E-13

      iter #   9 total cpu time : 15833.0 secs   av.it.:  19.7
      thresh= 5.096E-08 alpha_mix =  0.300 |ddv_scf|^2 =  1.282E-13

      iter #  10 total cpu time : 15885.9 secs   av.it.:  17.6
      thresh= 3.581E-08 alpha_mix =  0.300 |ddv_scf|^2 =  8.334E-15

     End of self-consistent calculation

     Convergence has been achieved 


     Representation #   6 mode #   6

     Self-consistent Calculation

      iter #   1 total cpu time : 15916.8 secs   av.it.:   7.4
      thresh= 1.000E-02 alpha_mix =  0.300 |ddv_scf|^2 =  6.429E-07

      iter #   2 total cpu time : 15969.1 secs   av.it.:  17.9
      thresh= 8.018E-05 alpha_mix =  0.300 |ddv_scf|^2 =  9.905E-07

      iter #   3 total cpu time : 16017.6 secs   av.it.:  16.5
      thresh= 9.952E-05 alpha_mix =  0.300 |ddv_scf|^2 =  9.415E-09

      iter #   4 total cpu time : 16066.2 secs   av.it.:  16.6
      thresh= 9.703E-06 alpha_mix =  0.300 |ddv_scf|^2 =  8.049E-10

      iter #   5 total cpu time : 16117.9 secs   av.it.:  17.9
      thresh= 2.837E-06 alpha_mix =  0.300 |ddv_scf|^2 =  1.061E-10

      iter #   6 total cpu time : 16169.9 secs   av.it.:  18.0
      thresh= 1.030E-06 alpha_mix =  0.300 |ddv_scf|^2 =  2.918E-11

      iter #   7 total cpu time : 16220.6 secs   av.it.:  16.9
      thresh= 5.402E-07 alpha_mix =  0.300 |ddv_scf|^2 =  3.752E-12

      iter #   8 total cpu time : 16274.1 secs   av.it.:  17.8
      thresh= 1.937E-07 alpha_mix =  0.300 |ddv_scf|^2 =  1.818E-13

      iter #   9 total cpu time : 16331.4 secs   av.it.:  19.2
      thresh= 4.264E-08 alpha_mix =  0.300 |ddv_scf|^2 =  6.268E-14

      iter #  10 total cpu time : 16387.3 secs   av.it.:  18.7
      thresh= 2.504E-08 alpha_mix =  0.300 |ddv_scf|^2 =  1.488E-14

      iter #  11 total cpu time : 16437.6 secs   av.it.:  17.2
      thresh= 1.220E-08 alpha_mix =  0.300 |ddv_scf|^2 =  1.244E-15

     End of self-consistent calculation

     Convergence has been achieved 


     Representation #   7 mode #   7

     Self-consistent Calculation

      iter #   1 total cpu time : 16466.5 secs   av.it.:   6.5
      thresh= 1.000E-02 alpha_mix =  0.300 |ddv_scf|^2 =  3.578E-07

      iter #   2 total cpu time : 16520.3 secs   av.it.:  18.5
      thresh= 5.981E-05 alpha_mix =  0.300 |ddv_scf|^2 =  1.212E-06

      iter #   3 total cpu time : 16568.8 secs   av.it.:  16.4
      thresh= 1.101E-04 alpha_mix =  0.300 |ddv_scf|^2 =  1.276E-08

      iter #   4 total cpu time : 16619.4 secs   av.it.:  17.2
      thresh= 1.130E-05 alpha_mix =  0.300 |ddv_scf|^2 =  1.725E-09

      iter #   5 total cpu time : 16671.7 secs   av.it.:  18.0
      thresh= 4.153E-06 alpha_mix =  0.300 |ddv_scf|^2 =  1.403E-10

      iter #   6 total cpu time : 16727.0 secs   av.it.:  19.2
      thresh= 1.184E-06 alpha_mix =  0.300 |ddv_scf|^2 =  1.149E-11

      iter #   7 total cpu time : 16782.3 secs   av.it.:  19.2
      thresh= 3.389E-07 alpha_mix =  0.300 |ddv_scf|^2 =  1.056E-12

      iter #   8 total cpu time : 16836.7 secs   av.it.:  18.9
      thresh= 1.028E-07 alpha_mix =  0.300 |ddv_scf|^2 =  2.196E-13

      iter #   9 total cpu time : 16894.0 secs   av.it.:  19.4
      thresh= 4.686E-08 alpha_mix =  0.300 |ddv_scf|^2 =  1.658E-13

      iter #  10 total cpu time : 16945.7 secs   av.it.:  17.9
      thresh= 4.072E-08 alpha_mix =  0.300 |ddv_scf|^2 =  2.505E-14

      iter #  11 total cpu time : 16999.3 secs   av.it.:  18.5
      thresh= 1.583E-08 alpha_mix =  0.300 |ddv_scf|^2 =  1.103E-14

      iter #  12 total cpu time : 17051.7 secs   av.it.:  18.1
      thresh= 1.050E-08 alpha_mix =  0.300 |ddv_scf|^2 =  1.592E-15

     End of self-consistent calculation

     Convergence has been achieved 


     Representation #   8 mode #   8

     Self-consistent Calculation

      iter #   1 total cpu time : 17080.8 secs   av.it.:   6.5
      thresh= 1.000E-02 alpha_mix =  0.300 |ddv_scf|^2 =  3.578E-07

      iter #   2 total cpu time : 17134.4 secs   av.it.:  18.5
      thresh= 5.982E-05 alpha_mix =  0.300 |ddv_scf|^2 =  1.212E-06

      iter #   3 total cpu time : 17182.8 secs   av.it.:  16.5
      thresh= 1.101E-04 alpha_mix =  0.300 |ddv_scf|^2 =  1.276E-08

      iter #   4 total cpu time : 17233.0 secs   av.it.:  17.2
      thresh= 1.130E-05 alpha_mix =  0.300 |ddv_scf|^2 =  1.725E-09

      iter #   5 total cpu time : 17284.9 secs   av.it.:  18.0
      thresh= 4.153E-06 alpha_mix =  0.300 |ddv_scf|^2 =  1.403E-10

      iter #   6 total cpu time : 17340.0 secs   av.it.:  19.2
      thresh= 1.185E-06 alpha_mix =  0.300 |ddv_scf|^2 =  1.148E-11

      iter #   7 total cpu time : 17395.9 secs   av.it.:  19.2
      thresh= 3.389E-07 alpha_mix =  0.300 |ddv_scf|^2 =  1.056E-12

      iter #   8 total cpu time : 17452.3 secs   av.it.:  18.9
      thresh= 1.027E-07 alpha_mix =  0.300 |ddv_scf|^2 =  2.195E-13

      iter #   9 total cpu time : 17510.3 secs   av.it.:  19.5
      thresh= 4.685E-08 alpha_mix =  0.300 |ddv_scf|^2 =  1.658E-13

      iter #  10 total cpu time : 17562.2 secs   av.it.:  17.9
      thresh= 4.071E-08 alpha_mix =  0.300 |ddv_scf|^2 =  2.503E-14

      iter #  11 total cpu time : 17615.7 secs   av.it.:  18.5
      thresh= 1.582E-08 alpha_mix =  0.300 |ddv_scf|^2 =  1.103E-14

      iter #  12 total cpu time : 17670.0 secs   av.it.:  18.1
      thresh= 1.050E-08 alpha_mix =  0.300 |ddv_scf|^2 =  1.591E-15

     End of self-consistent calculation

     Convergence has been achieved 


     Representation #   9 mode #   9

     Self-consistent Calculation

      iter #   1 total cpu time : 17698.4 secs   av.it.:   6.2
      thresh= 1.000E-02 alpha_mix =  0.300 |ddv_scf|^2 =  2.311E-07

      iter #   2 total cpu time : 17751.7 secs   av.it.:  18.4
      thresh= 4.808E-05 alpha_mix =  0.300 |ddv_scf|^2 =  7.357E-07

      iter #   3 total cpu time : 17801.8 secs   av.it.:  16.5
      thresh= 8.577E-05 alpha_mix =  0.300 |ddv_scf|^2 =  1.086E-08

      iter #   4 total cpu time : 17853.6 secs   av.it.:  17.1
      thresh= 1.042E-05 alpha_mix =  0.300 |ddv_scf|^2 =  1.974E-09

      iter #   5 total cpu time : 17907.3 secs   av.it.:  17.9
      thresh= 4.443E-06 alpha_mix =  0.300 |ddv_scf|^2 =  8.448E-11

      iter #   6 total cpu time : 17962.8 secs   av.it.:  19.0
      thresh= 9.191E-07 alpha_mix =  0.300 |ddv_scf|^2 =  8.347E-12

      iter #   7 total cpu time : 18019.3 secs   av.it.:  19.6
      thresh= 2.889E-07 alpha_mix =  0.300 |ddv_scf|^2 =  9.952E-13

      iter #   8 total cpu time : 18072.7 secs   av.it.:  18.5
      thresh= 9.976E-08 alpha_mix =  0.300 |ddv_scf|^2 =  1.500E-13

      iter #   9 total cpu time : 18129.9 secs   av.it.:  19.1
      thresh= 3.873E-08 alpha_mix =  0.300 |ddv_scf|^2 =  1.958E-13

      iter #  10 total cpu time : 18183.0 secs   av.it.:  18.3
      thresh= 4.425E-08 alpha_mix =  0.300 |ddv_scf|^2 =  1.435E-14

      iter #  11 total cpu time : 18235.8 secs   av.it.:  18.2
      thresh= 1.198E-08 alpha_mix =  0.300 |ddv_scf|^2 =  6.106E-15

     End of self-consistent calculation

     Convergence has been achieved 


     Representation #  10 mode #  10

     Self-consistent Calculation

      iter #   1 total cpu time : 18264.0 secs   av.it.:   6.5
      thresh= 1.000E-02 alpha_mix =  0.300 |ddv_scf|^2 =  3.577E-07

      iter #   2 total cpu time : 18318.8 secs   av.it.:  18.5
      thresh= 5.981E-05 alpha_mix =  0.300 |ddv_scf|^2 =  1.211E-06

      iter #   3 total cpu time : 18367.3 secs   av.it.:  16.5
      thresh= 1.101E-04 alpha_mix =  0.300 |ddv_scf|^2 =  1.277E-08

      iter #   4 total cpu time : 18419.5 secs   av.it.:  17.2
      thresh= 1.130E-05 alpha_mix =  0.300 |ddv_scf|^2 =  1.725E-09

      iter #   5 total cpu time : 18471.5 secs   av.it.:  18.0
      thresh= 4.153E-06 alpha_mix =  0.300 |ddv_scf|^2 =  1.403E-10

      iter #   6 total cpu time : 18526.9 secs   av.it.:  19.2
      thresh= 1.184E-06 alpha_mix =  0.300 |ddv_scf|^2 =  1.149E-11

      iter #   7 total cpu time : 18583.9 secs   av.it.:  19.1
      thresh= 3.389E-07 alpha_mix =  0.300 |ddv_scf|^2 =  1.056E-12

      iter #   8 total cpu time : 18640.3 secs   av.it.:  18.8
      thresh= 1.028E-07 alpha_mix =  0.300 |ddv_scf|^2 =  2.196E-13

      iter #   9 total cpu time : 18698.4 secs   av.it.:  19.5
      thresh= 4.686E-08 alpha_mix =  0.300 |ddv_scf|^2 =  1.658E-13

      iter #  10 total cpu time : 18752.2 secs   av.it.:  17.9
      thresh= 4.072E-08 alpha_mix =  0.300 |ddv_scf|^2 =  2.505E-14

      iter #  11 total cpu time : 18805.8 secs   av.it.:  18.5
      thresh= 1.583E-08 alpha_mix =  0.300 |ddv_scf|^2 =  1.103E-14

      iter #  12 total cpu time : 18858.8 secs   av.it.:  18.1
      thresh= 1.050E-08 alpha_mix =  0.300 |ddv_scf|^2 =  1.592E-15

     End of self-consistent calculation

     Convergence has been achieved 


     Representation #  11 mode #  11

     Self-consistent Calculation

      iter #   1 total cpu time : 18887.5 secs   av.it.:   6.5
      thresh= 1.000E-02 alpha_mix =  0.300 |ddv_scf|^2 =  3.578E-07

      iter #   2 total cpu time : 18942.3 secs   av.it.:  18.5
      thresh= 5.981E-05 alpha_mix =  0.300 |ddv_scf|^2 =  1.211E-06

      iter #   3 total cpu time : 18990.4 secs   av.it.:  16.4
      thresh= 1.101E-04 alpha_mix =  0.300 |ddv_scf|^2 =  1.277E-08

      iter #   4 total cpu time : 19042.7 secs   av.it.:  17.3
      thresh= 1.130E-05 alpha_mix =  0.300 |ddv_scf|^2 =  1.725E-09

      iter #   5 total cpu time : 19095.8 secs   av.it.:  18.0
      thresh= 4.153E-06 alpha_mix =  0.300 |ddv_scf|^2 =  1.403E-10

      iter #   6 total cpu time : 19152.8 secs   av.it.:  19.2
      thresh= 1.184E-06 alpha_mix =  0.300 |ddv_scf|^2 =  1.149E-11

      iter #   7 total cpu time : 19210.0 secs   av.it.:  19.1
      thresh= 3.389E-07 alpha_mix =  0.300 |ddv_scf|^2 =  1.056E-12

      iter #   8 total cpu time : 19265.6 secs   av.it.:  18.8
      thresh= 1.028E-07 alpha_mix =  0.300 |ddv_scf|^2 =  2.195E-13

      iter #   9 total cpu time : 19321.7 secs   av.it.:  19.5
      thresh= 4.685E-08 alpha_mix =  0.300 |ddv_scf|^2 =  1.657E-13

      iter #  10 total cpu time : 19373.8 secs   av.it.:  17.9
      thresh= 4.070E-08 alpha_mix =  0.300 |ddv_scf|^2 =  2.504E-14

      iter #  11 total cpu time : 19429.1 secs   av.it.:  18.5
      thresh= 1.582E-08 alpha_mix =  0.300 |ddv_scf|^2 =  1.103E-14

      iter #  12 total cpu time : 19483.1 secs   av.it.:  18.1
      thresh= 1.050E-08 alpha_mix =  0.300 |ddv_scf|^2 =  1.591E-15

     End of self-consistent calculation

     Convergence has been achieved 


     Representation #  12 mode #  12

     Self-consistent Calculation

      iter #   1 total cpu time : 19510.7 secs   av.it.:   6.2
      thresh= 1.000E-02 alpha_mix =  0.300 |ddv_scf|^2 =  2.311E-07

      iter #   2 total cpu time : 19564.1 secs   av.it.:  18.4
      thresh= 4.808E-05 alpha_mix =  0.300 |ddv_scf|^2 =  7.356E-07

      iter #   3 total cpu time : 19612.4 secs   av.it.:  16.5
      thresh= 8.577E-05 alpha_mix =  0.300 |ddv_scf|^2 =  1.086E-08

      iter #   4 total cpu time : 19662.2 secs   av.it.:  17.1
      thresh= 1.042E-05 alpha_mix =  0.300 |ddv_scf|^2 =  1.974E-09

      iter #   5 total cpu time : 19714.1 secs   av.it.:  17.9
      thresh= 4.443E-06 alpha_mix =  0.300 |ddv_scf|^2 =  8.448E-11

      iter #   6 total cpu time : 19769.0 secs   av.it.:  19.0
      thresh= 9.191E-07 alpha_mix =  0.300 |ddv_scf|^2 =  8.347E-12
