
     Program PWSCF v.6.7MaX starts on 31May2026 at 13:22:43 

     This program is part of the open-source Quantum ESPRESSO suite
     for quantum simulation of materials; please cite
         "P. Giannozzi et al., J. Phys.:Condens. Matter 21 395502 (2009);
         "P. Giannozzi et al., J. Phys.:Condens. Matter 29 465901 (2017);
          URL http://www.quantum-espresso.org", 
     in publications or presentations arising from this work. More details at
     http://www.quantum-espresso.org/quote

     Parallel version (MPI), running on     5 processors

     MPI processes distributed on     1 nodes
     R & G space division:  proc/nbgrp/npool/nimage =       5
     Reading input from vc-relax.in

     Current dimensions of program PWSCF are:
     Max number of different atomic species (ntypx) = 10
     Max number of k-points (npk) =  40000
     Max angular momentum in pseudopotentials (lmaxx) =  3
     file Pt.pbe-n-rrkjus_psl.1.0.0.UPF: wavefunction(s)  6S renormalized

     Subspace diagonalization in iterative solution of the eigenvalue problem:
     a serial algorithm will be used


     Parallelization info
     --------------------
     sticks:   dense  smooth     PW     G-vecs:    dense   smooth      PW
     Min         533     265     77                20676     7289    1147
     Max         535     266     77                20677     7290    1149
     Sum        2669    1329    385               103383    36449    5743



     bravais-lattice index     =            1
     lattice parameter (alat)  =       7.2340  a.u.
     unit-cell volume          =     378.5607 (a.u.)^3
     number of atoms/cell      =            5
     number of atomic types    =            3
     number of electrons       =        23.00
     number of Kohn-Sham states=           16
     kinetic-energy cutoff     =      80.0000  Ry
     charge density cutoff     =     640.0000  Ry
     scf convergence threshold =      1.0E-10
     mixing beta               =       0.4000
     number of iterations used =            8  plain     mixing
     energy convergence thresh.=      1.0E-05
     force convergence thresh. =      1.0E-04
     press convergence thresh. =      5.0E-01
     Exchange-correlation= PBE
                           (   1   4   3   4   0   0   0)
     nstep                     =          200


     celldm(1)=   7.234000  celldm(2)=   0.000000  celldm(3)=   0.000000
     celldm(4)=   0.000000  celldm(5)=   0.000000  celldm(6)=   0.000000

     crystal axes: (cart. coord. in units of alat)
               a(1) = (   1.000000   0.000000   0.000000 )  
               a(2) = (   0.000000   1.000000   0.000000 )  
               a(3) = (   0.000000   0.000000   1.000000 )  

     reciprocal axes: (cart. coord. in units 2 pi/alat)
               b(1) = (  1.000000  0.000000  0.000000 )  
               b(2) = (  0.000000  1.000000  0.000000 )  
               b(3) = (  0.000000  0.000000  1.000000 )  


     PseudoPot. # 1 for Sr read from file:
     ./pseudo/Sr.pbe-spn-rrkjus_psl.1.0.0.UPF
     MD5 check sum: d40cbdc6d65db964d98e361dd51dcaad
     Pseudo is Ultrasoft + core correction, Zval = 10.0
     Generated using &quot;atomic&quot; code by A. Dal Corso  v.6.2.2
     Using radial grid of 1221 points,  6 beta functions with: 
                l(1) =   0
                l(2) =   0
                l(3) =   1
                l(4) =   1
                l(5) =   2
                l(6) =   2
     Q(r) pseudized with 0 coefficients 


     PseudoPot. # 2 for Pt read from file:
     ./pseudo/Pt.pbe-n-rrkjus_psl.1.0.0.UPF
     MD5 check sum: e31243be2e5ffef34acb4816ff39c7c0
     Pseudo is Ultrasoft + core correction, Zval = 10.0
     Generated using &quot;atomic&quot; code by A. Dal Corso  v.6.3
     Using radial grid of 1277 points,  6 beta functions with: 
                l(1) =   0
                l(2) =   0
                l(3) =   1
                l(4) =   1
                l(5) =   2
                l(6) =   2
     Q(r) pseudized with 0 coefficients 


     PseudoPot. # 3 for H  read from file:
     ./pseudo/H.pbe-rrkjus_psl.1.0.0.UPF
     MD5 check sum: 9e615844a0e642e0aee8526d0d0f65f7
     Pseudo is Ultrasoft, Zval =  1.0
     Generated using &quot;atomic&quot; code by A. Dal Corso  v.6.3MaX
     Using radial grid of  929 points,  2 beta functions with: 
                l(1) =   0
                l(2) =   0
     Q(r) pseudized with 0 coefficients 


     atomic species   valence    mass     pseudopotential
        Sr            10.00    87.62000     Sr( 1.00)
        Pt            10.00   195.08400     Pt( 1.00)
        H              1.00     1.00800     H ( 1.00)

     No symmetry found



   Cartesian axes

     site n.     atom                  positions (alat units)
         1           Sr  tau(   1) = (   0.5000000   0.5000000   0.5000000  )
         2           Pt  tau(   2) = (   0.0000000   0.0000000   0.0000000  )
         3           H   tau(   3) = (   0.5000000   0.0000000   0.0000000  )
         4           H   tau(   4) = (   0.0000000   0.5000000   0.0000000  )
         5           H   tau(   5) = (   0.0000000   0.0000000   0.5000000  )

     number of k points=   868  Methfessel-Paxton smearing, width (Ry)=  0.0200

     Number of k-points >= 100: set verbosity='high' to print them.

     Dense  grid:   103383 G-vectors     FFT dimensions: (  60,  60,  60)

     Smooth grid:    36449 G-vectors     FFT dimensions: (  45,  45,  45)

     Estimated max dynamical RAM per process >     282.82 MB

     Estimated total dynamical RAM >       1.38 GB

     Initial potential from superposition of free atoms

     starting charge   22.99220, renormalised to   23.00000
     Starting wfcs are   20 randomized atomic wfcs

     total cpu time spent up to now is       16.5 secs

     Self-consistent Calculation

     iteration #  1     ecut=    80.00 Ry     beta= 0.40
     Davidson diagonalization with overlap
     ethr =  1.00E-02,  avg # of iterations =  7.5

     Threshold (ethr) on eigenvalues was too large:
     Diagonalizing with lowered threshold

     Davidson diagonalization with overlap
     ethr =  8.96E-04,  avg # of iterations =  2.3

     total cpu time spent up to now is       96.3 secs

     total energy              =    -139.20598573 Ry
     estimated scf accuracy    <       0.22744987 Ry

     iteration #  2     ecut=    80.00 Ry     beta= 0.40
     Davidson diagonalization with overlap
     ethr =  9.89E-04,  avg # of iterations =  2.6

     total cpu time spent up to now is      131.0 secs

     total energy              =    -139.24528454 Ry
     estimated scf accuracy    <       0.02931298 Ry

     iteration #  3     ecut=    80.00 Ry     beta= 0.40
     Davidson diagonalization with overlap
     ethr =  1.27E-04,  avg # of iterations =  6.5

     total cpu time spent up to now is      170.7 secs

     total energy              =    -139.24958814 Ry
     estimated scf accuracy    <       0.00365654 Ry

     iteration #  4     ecut=    80.00 Ry     beta= 0.40
     Davidson diagonalization with overlap
     c_bands:  1 eigenvalues not converged
     c_bands:  1 eigenvalues not converged
     c_bands:  1 eigenvalues not converged
     ethr =  1.59E-05,  avg # of iterations =  6.3

     total cpu time spent up to now is      212.9 secs

     total energy              =    -139.25029972 Ry
     estimated scf accuracy    <       0.00036964 Ry

     iteration #  5     ecut=    80.00 Ry     beta= 0.40
     Davidson diagonalization with overlap
     ethr =  1.61E-06,  avg # of iterations =  6.2

     total cpu time spent up to now is      257.4 secs

     total energy              =    -139.25035445 Ry
     estimated scf accuracy    <       0.00012001 Ry

     iteration #  6     ecut=    80.00 Ry     beta= 0.40
     Davidson diagonalization with overlap
     ethr =  5.22E-07,  avg # of iterations =  2.3

     total cpu time spent up to now is      292.1 secs

     total energy              =    -139.25039574 Ry
     estimated scf accuracy    <       0.00003974 Ry

     iteration #  7     ecut=    80.00 Ry     beta= 0.40
     Davidson diagonalization with overlap
     ethr =  1.73E-07,  avg # of iterations =  1.6

     total cpu time spent up to now is      320.5 secs

     total energy              =    -139.25040082 Ry
     estimated scf accuracy    <       0.00000147 Ry

     iteration #  8     ecut=    80.00 Ry     beta= 0.40
     Davidson diagonalization with overlap
     ethr =  6.41E-09,  avg # of iterations =  4.6

     total cpu time spent up to now is      363.3 secs

     total energy              =    -139.25040197 Ry
     estimated scf accuracy    <       0.00000014 Ry

     iteration #  9     ecut=    80.00 Ry     beta= 0.40
     Davidson diagonalization with overlap
     ethr =  6.06E-10,  avg # of iterations =  2.4

     total cpu time spent up to now is      394.7 secs

     total energy              =    -139.25040194 Ry
     estimated scf accuracy    <       0.00000011 Ry

     iteration # 10     ecut=    80.00 Ry     beta= 0.40
     Davidson diagonalization with overlap
     ethr =  4.81E-10,  avg # of iterations =  2.1

     total cpu time spent up to now is      427.3 secs

     total energy              =    -139.25040196 Ry
     estimated scf accuracy    <          1.8E-10 Ry

     iteration # 11     ecut=    80.00 Ry     beta= 0.40
     Davidson diagonalization with overlap
     c_bands:  1 eigenvalues not converged
     c_bands:  1 eigenvalues not converged
     c_bands:  1 eigenvalues not converged
     ethr =  7.75E-13,  avg # of iterations =  8.9

     total cpu time spent up to now is      511.8 secs

     total energy              =    -139.25040196 Ry
     estimated scf accuracy    <          7.3E-10 Ry

     iteration # 12     ecut=    80.00 Ry     beta= 0.40
     Davidson diagonalization with overlap
     ethr =  7.75E-13,  avg # of iterations =  2.0

     total cpu time spent up to now is      543.0 secs

     total energy              =    -139.25040196 Ry
     estimated scf accuracy    <          2.3E-10 Ry

     iteration # 13     ecut=    80.00 Ry     beta= 0.40
     Davidson diagonalization with overlap
     ethr =  7.75E-13,  avg # of iterations =  4.4

     total cpu time spent up to now is      586.4 secs

     total energy              =    -139.25040196 Ry
     estimated scf accuracy    <          6.6E-10 Ry

     iteration # 14     ecut=    80.00 Ry     beta= 0.40
     Davidson diagonalization with overlap
     ethr =  7.75E-13,  avg # of iterations =  1.0

     total cpu time spent up to now is      613.1 secs

     total energy              =    -139.25040196 Ry
     estimated scf accuracy    <          4.4E-10 Ry

     iteration # 15     ecut=    80.00 Ry     beta= 0.40
     Davidson diagonalization with overlap
     ethr =  7.75E-13,  avg # of iterations =  2.9

     total cpu time spent up to now is      649.2 secs

     End of self-consistent calculation

     Number of k-points >= 100: set verbosity='high' to print the bands.

     the Fermi energy is    10.9571 ev

!    total energy              =    -139.25040196 Ry
     estimated scf accuracy    <          2.1E-13 Ry
     smearing contrib. (-TS)   =      -0.00056952 Ry
     internal energy E=F+TS    =    -139.24983244 Ry

     The total energy is F=E-TS. E is the sum of the following terms:
     one-electron contribution =      -3.61808936 Ry
     hartree contribution      =      16.75589310 Ry
     xc contribution           =     -44.48593011 Ry
     ewald contribution        =    -107.90170607 Ry

     convergence has been achieved in  15 iterations

     Forces acting on atoms (cartesian axes, Ry/au):

     atom    1 type  1   force =     0.00000000    0.00000001   -0.00000001
     atom    2 type  2   force =    -0.00000001   -0.00000004    0.00000004
     atom    3 type  3   force =     0.00000000    0.00000001   -0.00000001
     atom    4 type  3   force =     0.00000000    0.00000001   -0.00000001
     atom    5 type  3   force =     0.00000000    0.00000001   -0.00000001

     Total force =     0.000000     Total SCF correction =     0.000000
     SCF correction compared to forces is large: reduce conv_thr to get better values


     Computing stress (Cartesian axis) and pressure

          total   stress  (Ry/bohr**3)                   (kbar)     P=       20.12
   0.00013680   0.00000000   0.00000000           20.12        0.00        0.00
   0.00000000   0.00013680   0.00000000            0.00       20.12        0.00
   0.00000000   0.00000000   0.00013680            0.00        0.00       20.12


     BFGS Geometry Optimization
     Energy error            =      0.0E+00
     Gradient error          =      4.4E-08
     Cell gradient error     =      2.0E-04


     number of scf cycles    =   1
     number of bfgs steps    =   0

     enthalpy new            =    -139.1217318000 Ry

     new trust radius        =       0.0197577711 bohr
     new conv_thr            =            1.0E-10 Ry

     new unit-cell volume =    372.82362 a.u.^3 (    55.24676 Ang^3 )
     density =      8.58806 g/cm^3

CELL_PARAMETERS (alat=  7.23400000)
   0.994922615   0.000000001   0.000000000
   0.000000001   0.994922614   0.000000001
   0.000000000   0.000000001   0.994922616

ATOMIC_POSITIONS (crystal)
Sr            0.5000000003        0.5000000012        0.4999999986
Pt           -0.0000000011       -0.0000000052        0.0000000062
H             0.5000000004        0.0000000013       -0.0000000017
H             0.0000000002        0.5000000013       -0.0000000016
H             0.0000000001        0.0000000014        0.4999999985



     Writing output data file ./out/srpth3.save/
     NEW-OLD atomic charge density approx. for the potential
     extrapolated charge   22.64619, renormalised to   23.00000

     total cpu time spent up to now is      668.2 secs

     Self-consistent Calculation

     iteration #  1     ecut=    80.00 Ry     beta= 0.40
     Davidson diagonalization with overlap
     c_bands:  1 eigenvalues not converged
     c_bands:  1 eigenvalues not converged
     ethr =  1.00E-06,  avg # of iterations =  8.1

     total cpu time spent up to now is      739.2 secs

     total energy              =    -139.23557229 Ry
     estimated scf accuracy    <       0.01431022 Ry

     iteration #  2     ecut=    80.00 Ry     beta= 0.40
     Davidson diagonalization with overlap
     ethr =  6.22E-05,  avg # of iterations =  3.4

     total cpu time spent up to now is      782.0 secs

     total energy              =    -139.24883972 Ry
     estimated scf accuracy    <       0.02546788 Ry

     iteration #  3     ecut=    80.00 Ry     beta= 0.40
     Davidson diagonalization with overlap
     ethr =  6.22E-05,  avg # of iterations =  1.3

     total cpu time spent up to now is      810.1 secs

     total energy              =    -139.24888920 Ry
     estimated scf accuracy    <       0.00556779 Ry

     iteration #  4     ecut=    80.00 Ry     beta= 0.40
     Davidson diagonalization with overlap
     ethr =  2.42E-05,  avg # of iterations =  1.9

     total cpu time spent up to now is      839.9 secs

     total energy              =    -139.24932517 Ry
     estimated scf accuracy    <       0.00114438 Ry

     iteration #  5     ecut=    80.00 Ry     beta= 0.40
     Davidson diagonalization with overlap
     ethr =  4.98E-06,  avg # of iterations =  2.5

     total cpu time spent up to now is      870.5 secs

     total energy              =    -139.24946066 Ry
     estimated scf accuracy    <       0.00083381 Ry

     iteration #  6     ecut=    80.00 Ry     beta= 0.40
     Davidson diagonalization with overlap
     ethr =  3.63E-06,  avg # of iterations =  1.1

     total cpu time spent up to now is      897.2 secs

     total energy              =    -139.24929221 Ry
     estimated scf accuracy    <       0.00090285 Ry

     iteration #  7     ecut=    80.00 Ry     beta= 0.40
     Davidson diagonalization with overlap
     ethr =  3.63E-06,  avg # of iterations =  1.8

     total cpu time spent up to now is      926.0 secs

     total energy              =    -139.24920478 Ry
     estimated scf accuracy    <       0.00030176 Ry

     iteration #  8     ecut=    80.00 Ry     beta= 0.40
     Davidson diagonalization with overlap
     ethr =  1.31E-06,  avg # of iterations =  6.0

     total cpu time spent up to now is      981.1 secs

     total energy              =    -139.25066589 Ry
     estimated scf accuracy    <       0.00539156 Ry

     iteration #  9     ecut=    80.00 Ry     beta= 0.40
     Davidson diagonalization with overlap
     ethr =  1.31E-06,  avg # of iterations =  1.1

     total cpu time spent up to now is     1008.1 secs

     total energy              =    -139.25076778 Ry
     estimated scf accuracy    <       0.00515473 Ry

     iteration # 10     ecut=    80.00 Ry     beta= 0.40
     Davidson diagonalization with overlap
     ethr =  1.31E-06,  avg # of iterations =  1.0

     total cpu time spent up to now is     1034.7 secs

     total energy              =    -139.24916744 Ry
     estimated scf accuracy    <       0.00548946 Ry

     iteration # 11     ecut=    80.00 Ry     beta= 0.40
     Davidson diagonalization with overlap
     ethr =  1.31E-06,  avg # of iterations =  3.9

     total cpu time spent up to now is     1073.5 secs

     total energy              =    -139.24972249 Ry
     estimated scf accuracy    <       0.00090388 Ry

     iteration # 12     ecut=    80.00 Ry     beta= 0.40
     Davidson diagonalization with overlap
     ethr =  1.31E-06,  avg # of iterations =  1.2

     total cpu time spent up to now is     1100.6 secs

     total energy              =    -139.24916977 Ry
     estimated scf accuracy    <       0.00160360 Ry

     iteration # 13     ecut=    80.00 Ry     beta= 0.40
     Davidson diagonalization with overlap
     ethr =  1.31E-06,  avg # of iterations =  2.3

     total cpu time spent up to now is     1134.2 secs

     total energy              =    -139.24926703 Ry
     estimated scf accuracy    <       0.00015323 Ry

     iteration # 14     ecut=    80.00 Ry     beta= 0.40
     Davidson diagonalization with overlap
     ethr =  6.66E-07,  avg # of iterations =  2.8

     total cpu time spent up to now is     1167.5 secs

     total energy              =    -139.24929201 Ry
     estimated scf accuracy    <       0.00000759 Ry

     iteration # 15     ecut=    80.00 Ry     beta= 0.40
     Davidson diagonalization with overlap
     ethr =  3.30E-08,  avg # of iterations =  5.3

     total cpu time spent up to now is     1214.5 secs

     total energy              =    -139.24930905 Ry
     estimated scf accuracy    <       0.00000795 Ry

     iteration # 16     ecut=    80.00 Ry     beta= 0.40
     Davidson diagonalization with overlap
     ethr =  3.30E-08,  avg # of iterations =  2.1

     total cpu time spent up to now is     1246.0 secs

     total energy              =    -139.24929511 Ry
     estimated scf accuracy    <       0.00002499 Ry

     iteration # 17     ecut=    80.00 Ry     beta= 0.40
     Davidson diagonalization with overlap
     ethr =  3.30E-08,  avg # of iterations =  4.1

     total cpu time spent up to now is     1285.3 secs

     total energy              =    -139.24930334 Ry
     estimated scf accuracy    <       0.00000471 Ry

     iteration # 18     ecut=    80.00 Ry     beta= 0.40
     Davidson diagonalization with overlap
     ethr =  2.05E-08,  avg # of iterations =  1.0

     total cpu time spent up to now is     1312.0 secs

     total energy              =    -139.24930182 Ry
     estimated scf accuracy    <       0.00000375 Ry

     iteration # 19     ecut=    80.00 Ry     beta= 0.40
     Davidson diagonalization with overlap
     ethr =  1.63E-08,  avg # of iterations =  2.0

     total cpu time spent up to now is     1343.2 secs

     total energy              =    -139.24930226 Ry
     estimated scf accuracy    <       0.00000014 Ry

     iteration # 20     ecut=    80.00 Ry     beta= 0.40
     Davidson diagonalization with overlap
     ethr =  6.02E-10,  avg # of iterations =  4.9

     total cpu time spent up to now is     1387.1 secs

     total energy              =    -139.24930235 Ry
     estimated scf accuracy    <       0.00000004 Ry

     iteration # 21     ecut=    80.00 Ry     beta= 0.40
     Davidson diagonalization with overlap
     ethr =  1.55E-10,  avg # of iterations =  2.0

     total cpu time spent up to now is     1417.4 secs

     total energy              =    -139.24930237 Ry
     estimated scf accuracy    <          3.5E-09 Ry

     iteration # 22     ecut=    80.00 Ry     beta= 0.40
     Davidson diagonalization with overlap
     ethr =  1.51E-11,  avg # of iterations =  5.2

     total cpu time spent up to now is     1465.6 secs

     total energy              =    -139.24930237 Ry
     estimated scf accuracy    <       0.00000009 Ry

     iteration # 23     ecut=    80.00 Ry     beta= 0.40
     Davidson diagonalization with overlap
     ethr =  1.51E-11,  avg # of iterations =  2.2

     total cpu time spent up to now is     1499.3 secs

     total energy              =    -139.24930236 Ry
     estimated scf accuracy    <       0.00000005 Ry

     iteration # 24     ecut=    80.00 Ry     beta= 0.40
     Davidson diagonalization with overlap
     ethr =  1.51E-11,  avg # of iterations =  4.3

     total cpu time spent up to now is     1541.4 secs

     total energy              =    -139.24930236 Ry
     estimated scf accuracy    <          7.4E-09 Ry

     iteration # 25     ecut=    80.00 Ry     beta= 0.40
     Davidson diagonalization with overlap
     ethr =  1.51E-11,  avg # of iterations =  3.8

     total cpu time spent up to now is     1579.7 secs

     total energy              =    -139.24930236 Ry
     estimated scf accuracy    <          2.9E-10 Ry

     iteration # 26     ecut=    80.00 Ry     beta= 0.40
     Davidson diagonalization with overlap
     ethr =  1.25E-12,  avg # of iterations =  2.3

     total cpu time spent up to now is     1611.7 secs

     End of self-consistent calculation

     Number of k-points >= 100: set verbosity='high' to print the bands.

     the Fermi energy is    11.1837 ev

!    total energy              =    -139.24930236 Ry
     estimated scf accuracy    <          3.5E-11 Ry
     smearing contrib. (-TS)   =      -0.00057193 Ry
     internal energy E=F+TS    =    -139.24873043 Ry

     The total energy is F=E-TS. E is the sum of the following terms:
     one-electron contribution =      -2.81611173 Ry
     hartree contribution      =      16.53440009 Ry
     xc contribution           =     -44.51465832 Ry
     ewald contribution        =    -108.45236048 Ry

     convergence has been achieved in  26 iterations

     Forces acting on atoms (cartesian axes, Ry/au):

     atom    1 type  1   force =     0.00000002   -0.00000003   -0.00000000
     atom    2 type  2   force =    -0.00000008    0.00000010    0.00000001
     atom    3 type  3   force =     0.00000002   -0.00000002   -0.00000000
     atom    4 type  3   force =     0.00000002   -0.00000002    0.00000000
     atom    5 type  3   force =     0.00000002   -0.00000002   -0.00000000

     Total force =     0.000000     Total SCF correction =     0.000000
     SCF correction compared to forces is large: reduce conv_thr to get better values


     Computing stress (Cartesian axis) and pressure

          total   stress  (Ry/bohr**3)                   (kbar)     P=       36.48
   0.00024796  -0.00000000   0.00000000           36.48       -0.00        0.00
  -0.00000000   0.00024796   0.00000000           -0.00       36.48        0.00
   0.00000000   0.00000000   0.00024796            0.00        0.00       36.48

     Energy error            =      8.5E-04
     Gradient error          =      9.9E-08
     Cell gradient error     =      9.2E-05


     number of scf cycles    =   2
     number of bfgs steps    =   1

     enthalpy old            =    -139.1217318000 Ry
     enthalpy new            =    -139.1225821864 Ry

     CASE: enthalpy_new < enthalpy_old

     new trust radius        =       0.0160000272 bohr
     new conv_thr            =            1.0E-12 Ry

     new unit-cell volume =    368.20872 a.u.^3 (    54.56290 Ang^3 )
     density =      8.69570 g/cm^3

CELL_PARAMETERS (alat=  7.23400000)
   0.990800422  -0.000000003   0.000000005
  -0.000000003   0.990800421   0.000000001
   0.000000005   0.000000001   0.990800429

ATOMIC_POSITIONS (crystal)
Sr            0.5000000054        0.4999999935        0.4999999974
Pt           -0.0000000202        0.0000000196        0.0000000082
H             0.5000000050       -0.0000000045       -0.0000000018
H             0.0000000050        0.4999999960       -0.0000000016
H             0.0000000048       -0.0000000045        0.4999999977



     Writing output data file ./out/srpth3.save/
     NEW-OLD atomic charge density approx. for the potential
     extrapolated charge   22.71183, renormalised to   23.00000

     total cpu time spent up to now is     1630.8 secs

     Self-consistent Calculation

     iteration #  1     ecut=    80.00 Ry     beta= 0.40
     Davidson diagonalization with overlap
     c_bands:  1 eigenvalues not converged
     c_bands:  1 eigenvalues not converged
     ethr =  1.00E-06,  avg # of iterations =  6.9

     total cpu time spent up to now is     1696.0 secs

     total energy              =    -139.23898772 Ry
     estimated scf accuracy    <       0.00930666 Ry

     iteration #  2     ecut=    80.00 Ry     beta= 0.40
     Davidson diagonalization with overlap
     ethr =  4.05E-05,  avg # of iterations =  3.5

     total cpu time spent up to now is     1740.0 secs

     total energy              =    -139.24767771 Ry
     estimated scf accuracy    <       0.01617156 Ry

     iteration #  3     ecut=    80.00 Ry     beta= 0.40
     Davidson diagonalization with overlap
     ethr =  4.05E-05,  avg # of iterations =  1.3

     total cpu time spent up to now is     1769.8 secs

     total energy              =    -139.24768343 Ry
     estimated scf accuracy    <       0.00358601 Ry

     iteration #  4     ecut=    80.00 Ry     beta= 0.40
     Davidson diagonalization with overlap
     ethr =  1.56E-05,  avg # of iterations =  1.9

     total cpu time spent up to now is     1799.4 secs

     total energy              =    -139.24796691 Ry
     estimated scf accuracy    <       0.00075899 Ry

     iteration #  5     ecut=    80.00 Ry     beta= 0.40
     Davidson diagonalization with overlap
     ethr =  3.30E-06,  avg # of iterations =  2.7

     total cpu time spent up to now is     1830.0 secs

     total energy              =    -139.24805274 Ry
     estimated scf accuracy    <       0.00058764 Ry

     iteration #  6     ecut=    80.00 Ry     beta= 0.40
     Davidson diagonalization with overlap
     ethr =  2.55E-06,  avg # of iterations =  1.0

     total cpu time spent up to now is     1857.4 secs

     total energy              =    -139.24796867 Ry
     estimated scf accuracy    <       0.00062301 Ry

     iteration #  7     ecut=    80.00 Ry     beta= 0.40
     Davidson diagonalization with overlap
     ethr =  2.55E-06,  avg # of iterations =  1.1

     total cpu time spent up to now is     1884.7 secs

     total energy              =    -139.24776895 Ry
     estimated scf accuracy    <       0.00029802 Ry

     iteration #  8     ecut=    80.00 Ry     beta= 0.40
     Davidson diagonalization with overlap
     ethr =  1.30E-06,  avg # of iterations =  5.5

     total cpu time spent up to now is     1934.7 secs

     total energy              =    -139.24847924 Ry
     estimated scf accuracy    <       0.00276785 Ry

     iteration #  9     ecut=    80.00 Ry     beta= 0.40
     Davidson diagonalization with overlap
     ethr =  1.30E-06,  avg # of iterations =  1.1

     total cpu time spent up to now is     1961.7 secs

     total energy              =    -139.24855098 Ry
     estimated scf accuracy    <       0.00214835 Ry

     iteration # 10     ecut=    80.00 Ry     beta= 0.40
     Davidson diagonalization with overlap
     ethr =  1.30E-06,  avg # of iterations =  1.0

     total cpu time spent up to now is     1988.5 secs

     total energy              =    -139.24845955 Ry
     estimated scf accuracy    <       0.00233399 Ry

     iteration # 11     ecut=    80.00 Ry     beta= 0.40
     Davidson diagonalization with overlap
     ethr =  1.30E-06,  avg # of iterations =  1.0

     total cpu time spent up to now is     2015.2 secs

     total energy              =    -139.24874119 Ry
     estimated scf accuracy    <       0.00203136 Ry

     iteration # 12     ecut=    80.00 Ry     beta= 0.40
     Davidson diagonalization with overlap
     ethr =  1.30E-06,  avg # of iterations =  1.0

     total cpu time spent up to now is     2042.7 secs

     total energy              =    -139.24859225 Ry
     estimated scf accuracy    <       0.00304493 Ry

     iteration # 13     ecut=    80.00 Ry     beta= 0.40
     Davidson diagonalization with overlap
     ethr =  1.30E-06,  avg # of iterations =  1.0

     total cpu time spent up to now is     2069.3 secs

     total energy              =    -139.24798391 Ry
     estimated scf accuracy    <       0.00252836 Ry

     iteration # 14     ecut=    80.00 Ry     beta= 0.40
     Davidson diagonalization with overlap
     ethr =  1.30E-06,  avg # of iterations =  2.2

     total cpu time spent up to now is     2102.7 secs

     total energy              =    -139.24783725 Ry
     estimated scf accuracy    <       0.00072677 Ry

     iteration # 15     ecut=    80.00 Ry     beta= 0.40
     Davidson diagonalization with overlap
     ethr =  1.30E-06,  avg # of iterations =  3.3

     total cpu time spent up to now is     2137.4 secs

     total energy              =    -139.24790604 Ry
     estimated scf accuracy    <       0.00004825 Ry

     iteration # 16     ecut=    80.00 Ry     beta= 0.40
     Davidson diagonalization with overlap
     ethr =  2.10E-07,  avg # of iterations =  4.7

     total cpu time spent up to now is     2179.8 secs

     total energy              =    -139.24793058 Ry
     estimated scf accuracy    <       0.00006819 Ry

     iteration # 17     ecut=    80.00 Ry     beta= 0.40
     Davidson diagonalization with overlap
     ethr =  2.10E-07,  avg # of iterations =  2.0

     total cpu time spent up to now is     2210.8 secs

     total energy              =    -139.24793578 Ry
     estimated scf accuracy    <       0.00000406 Ry

     iteration # 18     ecut=    80.00 Ry     beta= 0.40
     Davidson diagonalization with overlap
     ethr =  1.76E-08,  avg # of iterations =  4.8

     total cpu time spent up to now is     2254.2 secs

     total energy              =    -139.24793663 Ry
     estimated scf accuracy    <       0.00000470 Ry

     iteration # 19     ecut=    80.00 Ry     beta= 0.40
     Davidson diagonalization with overlap
     ethr =  1.76E-08,  avg # of iterations =  2.8

     total cpu time spent up to now is     2289.2 secs

     total energy              =    -139.24793835 Ry
     estimated scf accuracy    <       0.00000261 Ry

     iteration # 20     ecut=    80.00 Ry     beta= 0.40
     Davidson diagonalization with overlap
     ethr =  1.13E-08,  avg # of iterations =  1.1

     total cpu time spent up to now is     2316.0 secs

     total energy              =    -139.24793855 Ry
     estimated scf accuracy    <       0.00000051 Ry

     iteration # 21     ecut=    80.00 Ry     beta= 0.40
     Davidson diagonalization with overlap
     ethr =  2.23E-09,  avg # of iterations =  1.1

     total cpu time spent up to now is     2343.0 secs

     total energy              =    -139.24793857 Ry
     estimated scf accuracy    <       0.00000046 Ry

     iteration # 22     ecut=    80.00 Ry     beta= 0.40
     Davidson diagonalization with overlap
     ethr =  1.98E-09,  avg # of iterations =  1.0

     total cpu time spent up to now is     2370.2 secs

     total energy              =    -139.24793852 Ry
     estimated scf accuracy    <       0.00000046 Ry

     iteration # 23     ecut=    80.00 Ry     beta= 0.40
     Davidson diagonalization with overlap
     ethr =  1.98E-09,  avg # of iterations =  1.0

     total cpu time spent up to now is     2397.1 secs

     total energy              =    -139.24793842 Ry
     estimated scf accuracy    <       0.00000027 Ry

     iteration # 24     ecut=    80.00 Ry     beta= 0.40
     Davidson diagonalization with overlap
     ethr =  1.16E-09,  avg # of iterations =  2.1

     total cpu time spent up to now is     2427.9 secs

     total energy              =    -139.24793845 Ry
     estimated scf accuracy    <       0.00000001 Ry

     iteration # 25     ecut=    80.00 Ry     beta= 0.40
     Davidson diagonalization with overlap
     ethr =  4.61E-11,  avg # of iterations =  5.0

     total cpu time spent up to now is     2473.4 secs

     total energy              =    -139.24793846 Ry
     estimated scf accuracy    <          2.3E-09 Ry

     iteration # 26     ecut=    80.00 Ry     beta= 0.40
     Davidson diagonalization with overlap
     ethr =  9.87E-12,  avg # of iterations =  1.5

     total cpu time spent up to now is     2503.7 secs

     total energy              =    -139.24793846 Ry
     estimated scf accuracy    <          5.9E-10 Ry

     iteration # 27     ecut=    80.00 Ry     beta= 0.40
     Davidson diagonalization with overlap
     ethr =  2.55E-12,  avg # of iterations =  2.2

     total cpu time spent up to now is     2537.3 secs

     total energy              =    -139.24793846 Ry
     estimated scf accuracy    <          1.0E-11 Ry

     iteration # 28     ecut=    80.00 Ry     beta= 0.40
     Davidson diagonalization with overlap
     ethr =  1.00E-13,  avg # of iterations =  4.8

     total cpu time spent up to now is     2578.7 secs

     total energy              =    -139.24793846 Ry
     estimated scf accuracy    <          1.3E-11 Ry

     iteration # 29     ecut=    80.00 Ry     beta= 0.40
     Davidson diagonalization with overlap
     ethr =  1.00E-13,  avg # of iterations =  1.0

     total cpu time spent up to now is     2605.3 secs

     total energy              =    -139.24793846 Ry
     estimated scf accuracy    <          1.3E-11 Ry

     iteration # 30     ecut=    80.00 Ry     beta= 0.40
     Davidson diagonalization with overlap
     ethr =  1.00E-13,  avg # of iterations =  1.0

     total cpu time spent up to now is     2632.1 secs

     total energy              =    -139.24793846 Ry
     estimated scf accuracy    <          2.4E-12 Ry

     iteration # 31     ecut=    80.00 Ry     beta= 0.40
     Davidson diagonalization with overlap
     ethr =  1.00E-13,  avg # of iterations =  1.0

     total cpu time spent up to now is     2658.9 secs

     End of self-consistent calculation

     Number of k-points >= 100: set verbosity='high' to print the bands.

     the Fermi energy is    11.3712 ev

!    total energy              =    -139.24793846 Ry
     estimated scf accuracy    <          2.0E-13 Ry
     smearing contrib. (-TS)   =      -0.00057549 Ry
     internal energy E=F+TS    =    -139.24736298 Ry

     The total energy is F=E-TS. E is the sum of the following terms:
     one-electron contribution =      -2.15979171 Ry
     hartree contribution      =      16.35448970 Ry
     xc contribution           =     -44.53848817 Ry
     ewald contribution        =    -108.90357279 Ry

     convergence has been achieved in  31 iterations

     Forces acting on atoms (cartesian axes, Ry/au):

     atom    1 type  1   force =    -0.00000000    0.00000001    0.00000000
     atom    2 type  2   force =     0.00000002   -0.00000003   -0.00000001
     atom    3 type  3   force =    -0.00000000    0.00000001    0.00000000
     atom    4 type  3   force =    -0.00000000    0.00000001    0.00000000
     atom    5 type  3   force =    -0.00000000    0.00000001    0.00000000

     Total force =     0.000000     Total SCF correction =     0.000000
     SCF correction compared to forces is large: reduce conv_thr to get better values


     Computing stress (Cartesian axis) and pressure

          total   stress  (Ry/bohr**3)                   (kbar)     P=       50.62
   0.00034410   0.00000000  -0.00000000           50.62        0.00       -0.00
   0.00000000   0.00034410  -0.00000000            0.00       50.62       -0.00
  -0.00000000  -0.00000000   0.00034410           -0.00       -0.00       50.62

     Energy error            =      2.0E-04
     Gradient error          =      3.0E-08
     Cell gradient error     =      4.2E-06


     number of scf cycles    =   3
     number of bfgs steps    =   2

     enthalpy old            =    -139.1225821864 Ry
     enthalpy new            =    -139.1227868646 Ry

     CASE: enthalpy_new < enthalpy_old

     new trust radius        =       0.0006931068 bohr
     new conv_thr            =            1.0E-12 Ry

     new unit-cell volume =    368.40825 a.u.^3 (    54.59247 Ang^3 )
     density =      8.69099 g/cm^3

CELL_PARAMETERS (alat=  7.23400000)
   0.990979362  -0.000000003   0.000000004
  -0.000000003   0.990979362   0.000000000
   0.000000004   0.000000000   0.990979369

ATOMIC_POSITIONS (crystal)
Sr            0.5000000049        0.4999999947        0.4999999978
Pt           -0.0000000179        0.0000000152        0.0000000073
H             0.5000000043       -0.0000000035       -0.0000000016
H             0.0000000045        0.4999999971       -0.0000000014
H             0.0000000043       -0.0000000035        0.4999999979



     Writing output data file ./out/srpth3.save/
     NEW-OLD atomic charge density approx. for the potential
     extrapolated charge   23.01245, renormalised to   23.00000

     total cpu time spent up to now is     2678.0 secs

     Self-consistent Calculation

     iteration #  1     ecut=    80.00 Ry     beta= 0.40
     Davidson diagonalization with overlap
     ethr =  1.00E-06,  avg # of iterations =  2.0

     Threshold (ethr) on eigenvalues was too large:
     Diagonalizing with lowered threshold

     Davidson diagonalization with overlap
     ethr =  6.67E-08,  avg # of iterations =  1.0

     total cpu time spent up to now is     2743.5 secs

     total energy              =    -139.24799104 Ry
     estimated scf accuracy    <       0.00001610 Ry

     iteration #  2     ecut=    80.00 Ry     beta= 0.40
     Davidson diagonalization with overlap
     ethr =  7.00E-08,  avg # of iterations =  3.5

     total cpu time spent up to now is     2785.4 secs

     total energy              =    -139.24800638 Ry
     estimated scf accuracy    <       0.00002728 Ry

     iteration #  3     ecut=    80.00 Ry     beta= 0.40
     Davidson diagonalization with overlap
     ethr =  7.00E-08,  avg # of iterations =  1.3

     total cpu time spent up to now is     2813.2 secs

     total energy              =    -139.24800624 Ry
     estimated scf accuracy    <       0.00000634 Ry

     iteration #  4     ecut=    80.00 Ry     beta= 0.40
     Davidson diagonalization with overlap
     ethr =  2.76E-08,  avg # of iterations =  1.9

     total cpu time spent up to now is     2842.9 secs

     total energy              =    -139.24800676 Ry
     estimated scf accuracy    <       0.00000129 Ry

     iteration #  5     ecut=    80.00 Ry     beta= 0.40
     Davidson diagonalization with overlap
     ethr =  5.59E-09,  avg # of iterations =  2.4

     total cpu time spent up to now is     2873.0 secs

     total energy              =    -139.24800697 Ry
     estimated scf accuracy    <       0.00000101 Ry

     iteration #  6     ecut=    80.00 Ry     beta= 0.40
     Davidson diagonalization with overlap
     ethr =  4.39E-09,  avg # of iterations =  1.0

     total cpu time spent up to now is     2900.5 secs

     total energy              =    -139.24800649 Ry
     estimated scf accuracy    <       0.00000132 Ry

     iteration #  7     ecut=    80.00 Ry     beta= 0.40
     Davidson diagonalization with overlap
     ethr =  4.39E-09,  avg # of iterations =  2.3

     total cpu time spent up to now is     2932.4 secs

     total energy              =    -139.24800668 Ry
     estimated scf accuracy    <       0.00000006 Ry

     iteration #  8     ecut=    80.00 Ry     beta= 0.40
     Davidson diagonalization with overlap
     ethr =  2.70E-10,  avg # of iterations =  6.3

     total cpu time spent up to now is     2989.1 secs

     total energy              =    -139.24800712 Ry
     estimated scf accuracy    <       0.00000169 Ry

     iteration #  9     ecut=    80.00 Ry     beta= 0.40
     Davidson diagonalization with overlap
     ethr =  2.70E-10,  avg # of iterations =  1.0

     total cpu time spent up to now is     3015.7 secs

     total energy              =    -139.24800712 Ry
     estimated scf accuracy    <       0.00000162 Ry

     iteration # 10     ecut=    80.00 Ry     beta= 0.40
     Davidson diagonalization with overlap
     ethr =  2.70E-10,  avg # of iterations =  1.0

     total cpu time spent up to now is     3042.3 secs

     total energy              =    -139.24800706 Ry
     estimated scf accuracy    <       0.00000164 Ry

     iteration # 11     ecut=    80.00 Ry     beta= 0.40
     Davidson diagonalization with overlap
     ethr =  2.70E-10,  avg # of iterations =  1.2

     total cpu time spent up to now is     3070.2 secs

     total energy              =    -139.24800705 Ry
     estimated scf accuracy    <       0.00000146 Ry

     iteration # 12     ecut=    80.00 Ry     beta= 0.40
     Davidson diagonalization with overlap
     ethr =  2.70E-10,  avg # of iterations =  1.0

     total cpu time spent up to now is     3096.9 secs

     total energy              =    -139.24800700 Ry
     estimated scf accuracy    <       0.00000139 Ry

     iteration # 13     ecut=    80.00 Ry     beta= 0.40
     Davidson diagonalization with overlap
     ethr =  2.70E-10,  avg # of iterations =  1.0

     total cpu time spent up to now is     3123.6 secs

     total energy              =    -139.24800673 Ry
     estimated scf accuracy    <       0.00000120 Ry

     iteration # 14     ecut=    80.00 Ry     beta= 0.40
     Davidson diagonalization with overlap
     ethr =  2.70E-10,  avg # of iterations =  3.9

     total cpu time spent up to now is     3161.9 secs

     total energy              =    -139.24800685 Ry
     estimated scf accuracy    <       0.00000035 Ry

     iteration # 15     ecut=    80.00 Ry     beta= 0.40
     Davidson diagonalization with overlap
     ethr =  2.70E-10,  avg # of iterations =  1.3

     total cpu time spent up to now is     3189.6 secs

     total energy              =    -139.24800719 Ry
     estimated scf accuracy    <       0.00000055 Ry

     iteration # 16     ecut=    80.00 Ry     beta= 0.40
     Davidson diagonalization with overlap
     ethr =  2.70E-10,  avg # of iterations =  4.4

     total cpu time spent up to now is     3233.4 secs

     total energy              =    -139.24800628 Ry
     estimated scf accuracy    <       0.00000207 Ry

     iteration # 17     ecut=    80.00 Ry     beta= 0.40
     Davidson diagonalization with overlap
     ethr =  2.70E-10,  avg # of iterations =  5.6

     total cpu time spent up to now is     3281.5 secs

     total energy              =    -139.24800669 Ry
     estimated scf accuracy    <       0.00000002 Ry

     iteration # 18     ecut=    80.00 Ry     beta= 0.40
     Davidson diagonalization with overlap
     ethr =  7.75E-11,  avg # of iterations =  1.6

     total cpu time spent up to now is     3309.9 secs

     total energy              =    -139.24800669 Ry
     estimated scf accuracy    <          5.6E-09 Ry

     iteration # 19     ecut=    80.00 Ry     beta= 0.40
     Davidson diagonalization with overlap
     ethr =  2.41E-11,  avg # of iterations =  2.0

     total cpu time spent up to now is     3340.3 secs

     total energy              =    -139.24800669 Ry
     estimated scf accuracy    <          1.0E-09 Ry

     iteration # 20     ecut=    80.00 Ry     beta= 0.40
     Davidson diagonalization with overlap
     ethr =  4.52E-12,  avg # of iterations =  4.5

     total cpu time spent up to now is     3380.5 secs

     total energy              =    -139.24800669 Ry
     estimated scf accuracy    <          4.7E-10 Ry

     iteration # 21     ecut=    80.00 Ry     beta= 0.40
     Davidson diagonalization with overlap
     ethr =  2.03E-12,  avg # of iterations =  1.9

     total cpu time spent up to now is     3411.7 secs

     total energy              =    -139.24800669 Ry
     estimated scf accuracy    <          3.0E-11 Ry

     iteration # 22     ecut=    80.00 Ry     beta= 0.40
     Davidson diagonalization with overlap
     ethr =  1.32E-13,  avg # of iterations =  4.6

     total cpu time spent up to now is     3452.9 secs

     total energy              =    -139.24800669 Ry
     estimated scf accuracy    <          3.6E-12 Ry

     iteration # 23     ecut=    80.00 Ry     beta= 0.40
     Davidson diagonalization with overlap
     ethr =  1.00E-13,  avg # of iterations =  1.0

     total cpu time spent up to now is     3479.6 secs

     End of self-consistent calculation

     Number of k-points >= 100: set verbosity='high' to print the bands.

     the Fermi energy is    11.3630 ev

!    total energy              =    -139.24800669 Ry
     estimated scf accuracy    <          9.2E-14 Ry
     smearing contrib. (-TS)   =      -0.00057530 Ry
     internal energy E=F+TS    =    -139.24743139 Ry

     The total energy is F=E-TS. E is the sum of the following terms:
     one-electron contribution =      -2.18837976 Ry
     hartree contribution      =      16.36230056 Ry
     xc contribution           =     -44.53744404 Ry
     ewald contribution        =    -108.88390815 Ry

     convergence has been achieved in  23 iterations

     Forces acting on atoms (cartesian axes, Ry/au):

     atom    1 type  1   force =    -0.00000001    0.00000002    0.00000001
     atom    2 type  2   force =     0.00000004   -0.00000007   -0.00000003
     atom    3 type  3   force =    -0.00000001    0.00000001    0.00000001
     atom    4 type  3   force =    -0.00000001    0.00000002    0.00000001
     atom    5 type  3   force =    -0.00000001    0.00000002    0.00000001

     Total force =     0.000000     Total SCF correction =     0.000000
     SCF correction compared to forces is large: reduce conv_thr to get better values


     Computing stress (Cartesian axis) and pressure

          total   stress  (Ry/bohr**3)                   (kbar)     P=       49.99
   0.00033981   0.00000000  -0.00000000           49.99        0.00       -0.00
   0.00000000   0.00033981  -0.00000000            0.00       49.99       -0.00
  -0.00000000  -0.00000000   0.00033981           -0.00       -0.00       49.99

     Energy error            =      4.1E-07
     Gradient error          =      6.9E-08
     Cell gradient error     =      8.1E-08


     bfgs converged in   4 scf cycles and   3 bfgs steps
     (criteria: energy <  1.0E-05 Ry, force <  1.0E-04Ry/Bohr, cell <  5.0E-01kbar)

     End of BFGS Geometry Optimization

     Final enthalpy =    -139.1227872753 Ry

     File ./out/srpth3.bfgs deleted, as requested
Begin final coordinates
     new unit-cell volume =    368.40825 a.u.^3 (    54.59247 Ang^3 )
     density =      8.69099 g/cm^3

CELL_PARAMETERS (alat=  7.23400000)
   0.990979362  -0.000000003   0.000000004
  -0.000000003   0.990979362   0.000000000
   0.000000004   0.000000000   0.990979369

ATOMIC_POSITIONS (crystal)
Sr            0.5000000049        0.4999999947        0.4999999978
Pt           -0.0000000179        0.0000000152        0.0000000073
H             0.5000000043       -0.0000000035       -0.0000000016
H             0.0000000045        0.4999999971       -0.0000000014
H             0.0000000043       -0.0000000035        0.4999999979
End final coordinates



     Writing output data file ./out/srpth3.save/

     Final scf calculation at the relaxed structure.
     The G-vectors are recalculated for the final unit cell
     Results may differ from those at the preceding step.

     Parallelization info
     --------------------
     sticks:   dense  smooth     PW     G-vecs:    dense   smooth      PW
     Min         523     261     77                20147     7117    1139
     Max         524     263     77                20148     7117    1139
     Sum        2617    1313    385               100737    35585    5695



     bravais-lattice index     =            1
     lattice parameter (alat)  =       7.2340  a.u.
     unit-cell volume          =     368.4082 (a.u.)^3
     number of atoms/cell      =            5
     number of atomic types    =            3
     number of electrons       =        23.00
     number of Kohn-Sham states=           16
     kinetic-energy cutoff     =      80.0000  Ry
     charge density cutoff     =     640.0000  Ry
     scf convergence threshold =      1.0E-12
     mixing beta               =       0.4000
     number of iterations used =            8  plain     mixing
     press convergence thresh. =      5.0E-01
     Exchange-correlation= PBE
                           (   1   4   3   4   0   0   0)

     celldm(1)=   7.234000  celldm(2)=   0.000000  celldm(3)=   0.000000
     celldm(4)=   0.000000  celldm(5)=   0.000000  celldm(6)=   0.000000

     crystal axes: (cart. coord. in units of alat)
               a(1) = (   0.990979  -0.000000   0.000000 )  
               a(2) = (  -0.000000   0.990979   0.000000 )  
               a(3) = (   0.000000   0.000000   0.990979 )  

     reciprocal axes: (cart. coord. in units 2 pi/alat)
               b(1) = (  1.009103  0.000000 -0.000000 )  
               b(2) = (  0.000000  1.009103 -0.000000 )  
               b(3) = ( -0.000000 -0.000000  1.009103 )  


     PseudoPot. # 1 for Sr read from file:
     ./pseudo/Sr.pbe-spn-rrkjus_psl.1.0.0.UPF
     MD5 check sum: d40cbdc6d65db964d98e361dd51dcaad
     Pseudo is Ultrasoft + core correction, Zval = 10.0
     Generated using &quot;atomic&quot; code by A. Dal Corso  v.6.2.2
     Using radial grid of 1221 points,  6 beta functions with: 
                l(1) =   0
                l(2) =   0
                l(3) =   1
                l(4) =   1
                l(5) =   2
                l(6) =   2
     Q(r) pseudized with 0 coefficients 


     PseudoPot. # 2 for Pt read from file:
     ./pseudo/Pt.pbe-n-rrkjus_psl.1.0.0.UPF
     MD5 check sum: e31243be2e5ffef34acb4816ff39c7c0
     Pseudo is Ultrasoft + core correction, Zval = 10.0
     Generated using &quot;atomic&quot; code by A. Dal Corso  v.6.3
     Using radial grid of 1277 points,  6 beta functions with: 
                l(1) =   0
                l(2) =   0
                l(3) =   1
                l(4) =   1
                l(5) =   2
                l(6) =   2
     Q(r) pseudized with 0 coefficients 


     PseudoPot. # 3 for H  read from file:
     ./pseudo/H.pbe-rrkjus_psl.1.0.0.UPF
     MD5 check sum: 9e615844a0e642e0aee8526d0d0f65f7
     Pseudo is Ultrasoft, Zval =  1.0
     Generated using &quot;atomic&quot; code by A. Dal Corso  v.6.3MaX
     Using radial grid of  929 points,  2 beta functions with: 
                l(1) =   0
                l(2) =   0
     Q(r) pseudized with 0 coefficients 


     atomic species   valence    mass     pseudopotential
        Sr            10.00    87.62000     Sr( 1.00)
        Pt            10.00   195.08400     Pt( 1.00)
        H              1.00     1.00800     H ( 1.00)

     No symmetry found



   Cartesian axes

     site n.     atom                  positions (alat units)
         1           Sr  tau(   1) = (   0.4954897   0.4954897   0.4954897  )
         2           Pt  tau(   2) = (  -0.0000000   0.0000000   0.0000000  )
         3           H   tau(   3) = (   0.4954897  -0.0000000   0.0000000  )
         4           H   tau(   4) = (   0.0000000   0.4954897  -0.0000000  )
         5           H   tau(   5) = (   0.0000000  -0.0000000   0.4954897  )

     number of k points=   868  Methfessel-Paxton smearing, width (Ry)=  0.0200

     Number of k-points >= 100: set verbosity='high' to print them.

     Dense  grid:   100737 G-vectors     FFT dimensions: (  60,  60,  60)

     Smooth grid:    35585 G-vectors     FFT dimensions: (  45,  45,  45)

     Estimated max dynamical RAM per process >     276.31 MB

     Estimated total dynamical RAM >       1.35 GB

     Initial potential from superposition of free atoms

     starting charge   22.99220, renormalised to   23.00000
     Starting wfcs are   20 randomized atomic wfcs

     total cpu time spent up to now is     3511.4 secs

     Self-consistent Calculation

     iteration #  1     ecut=    80.00 Ry     beta= 0.40
     Davidson diagonalization with overlap
     c_bands:  5 eigenvalues not converged
     c_bands:  1 eigenvalues not converged
     c_bands:  1 eigenvalues not converged
     c_bands:  3 eigenvalues not converged
     c_bands:  3 eigenvalues not converged
     c_bands:  2 eigenvalues not converged
     c_bands:  1 eigenvalues not converged
     c_bands:  1 eigenvalues not converged
     c_bands:  4 eigenvalues not converged
     c_bands:  4 eigenvalues not converged
     c_bands:  2 eigenvalues not converged
     c_bands:  2 eigenvalues not converged
     c_bands:  2 eigenvalues not converged
     c_bands:  5 eigenvalues not converged
     c_bands:  5 eigenvalues not converged
     c_bands:  5 eigenvalues not converged
     c_bands:  1 eigenvalues not converged
     c_bands:  5 eigenvalues not converged
     c_bands:  5 eigenvalues not converged
     c_bands:  4 eigenvalues not converged
     c_bands:  4 eigenvalues not converged
     c_bands:  3 eigenvalues not converged
     c_bands:  2 eigenvalues not converged
     c_bands:  5 eigenvalues not converged
     c_bands:  3 eigenvalues not converged
     c_bands:  2 eigenvalues not converged
     c_bands:  3 eigenvalues not converged
     c_bands:  4 eigenvalues not converged
     c_bands:  3 eigenvalues not converged
     c_bands:  4 eigenvalues not converged
     c_bands:  4 eigenvalues not converged
     c_bands:  5 eigenvalues not converged
     c_bands:  3 eigenvalues not converged
     c_bands:  2 eigenvalues not converged
     c_bands:  4 eigenvalues not converged
     c_bands:  4 eigenvalues not converged
     c_bands:  4 eigenvalues not converged
     c_bands:  3 eigenvalues not converged
     c_bands:  4 eigenvalues not converged
     c_bands:  4 eigenvalues not converged
     c_bands:  3 eigenvalues not converged
     c_bands:  3 eigenvalues not converged
     c_bands:  4 eigenvalues not converged
     c_bands:  4 eigenvalues not converged
     c_bands:  3 eigenvalues not converged
     c_bands:  4 eigenvalues not converged
     c_bands:  3 eigenvalues not converged
     c_bands:  4 eigenvalues not converged
     c_bands:  4 eigenvalues not converged
     c_bands:  3 eigenvalues not converged
     c_bands:  4 eigenvalues not converged
     c_bands:  3 eigenvalues not converged
     c_bands:  3 eigenvalues not converged
     c_bands:  3 eigenvalues not converged
     c_bands:  1 eigenvalues not converged
     c_bands:  2 eigenvalues not converged
     c_bands:  3 eigenvalues not converged
     c_bands:  2 eigenvalues not converged
     c_bands:  4 eigenvalues not converged
     c_bands:  4 eigenvalues not converged
     c_bands:  2 eigenvalues not converged
     c_bands:  1 eigenvalues not converged
     c_bands:  5 eigenvalues not converged
     c_bands:  4 eigenvalues not converged
     c_bands:  5 eigenvalues not converged
     c_bands:  5 eigenvalues not converged
     c_bands:  4 eigenvalues not converged
     c_bands:  3 eigenvalues not converged
     c_bands:  3 eigenvalues not converged
     c_bands:  3 eigenvalues not converged
     c_bands:  5 eigenvalues not converged
     c_bands:  4 eigenvalues not converged
     c_bands:  1 eigenvalues not converged
     c_bands:  1 eigenvalues not converged
     c_bands:  1 eigenvalues not converged
     c_bands:  5 eigenvalues not converged
     c_bands:  5 eigenvalues not converged
     c_bands:  5 eigenvalues not converged
     c_bands:  3 eigenvalues not converged
     c_bands:  3 eigenvalues not converged
     c_bands:  2 eigenvalues not converged
     c_bands:  4 eigenvalues not converged
     c_bands:  4 eigenvalues not converged
     c_bands:  1 eigenvalues not converged
     c_bands:  5 eigenvalues not converged
     c_bands:  1 eigenvalues not converged
     c_bands:  1 eigenvalues not converged
     c_bands:  1 eigenvalues not converged
     c_bands:  3 eigenvalues not converged
     c_bands:  3 eigenvalues not converged
     c_bands:  3 eigenvalues not converged
     c_bands:  3 eigenvalues not converged
     c_bands:  4 eigenvalues not converged
     c_bands:  5 eigenvalues not converged
     c_bands:  5 eigenvalues not converged
     c_bands:  4 eigenvalues not converged
     c_bands:  4 eigenvalues not converged
     c_bands:  4 eigenvalues not converged
     c_bands:  4 eigenvalues not converged
     c_bands:  3 eigenvalues not converged
     c_bands:  4 eigenvalues not converged
     c_bands:  4 eigenvalues not converged
     c_bands:  3 eigenvalues not converged
     c_bands:  4 eigenvalues not converged
     c_bands:  4 eigenvalues not converged
     c_bands:  4 eigenvalues not converged
     c_bands:  4 eigenvalues not converged
     c_bands:  3 eigenvalues not converged
     c_bands:  4 eigenvalues not converged
     c_bands:  4 eigenvalues not converged
     c_bands:  4 eigenvalues not converged
     c_bands:  2 eigenvalues not converged
     c_bands:  3 eigenvalues not converged
     c_bands:  3 eigenvalues not converged
     c_bands:  3 eigenvalues not converged
     c_bands:  4 eigenvalues not converged
     c_bands:  4 eigenvalues not converged
     c_bands:  4 eigenvalues not converged
     c_bands:  4 eigenvalues not converged
     c_bands:  4 eigenvalues not converged
     c_bands:  3 eigenvalues not converged
     c_bands:  3 eigenvalues not converged
     c_bands:  3 eigenvalues not converged
     c_bands:  2 eigenvalues not converged
     c_bands:  3 eigenvalues not converged
     c_bands:  2 eigenvalues not converged
     c_bands:  3 eigenvalues not converged
     c_bands:  4 eigenvalues not converged
     c_bands:  3 eigenvalues not converged
     c_bands:  3 eigenvalues not converged
     c_bands:  4 eigenvalues not converged
     c_bands:  4 eigenvalues not converged
     c_bands:  3 eigenvalues not converged
     c_bands:  2 eigenvalues not converged
     c_bands:  2 eigenvalues not converged
     c_bands:  2 eigenvalues not converged
     c_bands:  5 eigenvalues not converged
     c_bands:  3 eigenvalues not converged
     c_bands:  5 eigenvalues not converged
     c_bands:  4 eigenvalues not converged
     c_bands:  4 eigenvalues not converged
     c_bands:  4 eigenvalues not converged
     c_bands:  4 eigenvalues not converged
     c_bands:  4 eigenvalues not converged
     c_bands:  4 eigenvalues not converged
     c_bands:  3 eigenvalues not converged
     c_bands:  2 eigenvalues not converged
     c_bands:  4 eigenvalues not converged
     c_bands:  4 eigenvalues not converged
     c_bands:  5 eigenvalues not converged
     c_bands:  4 eigenvalues not converged
     c_bands:  4 eigenvalues not converged
     c_bands:  4 eigenvalues not converged
     c_bands:  3 eigenvalues not converged
     c_bands:  3 eigenvalues not converged
     c_bands:  2 eigenvalues not converged
     c_bands:  5 eigenvalues not converged
     c_bands:  1 eigenvalues not converged
     c_bands:  4 eigenvalues not converged
     c_bands:  4 eigenvalues not converged
     c_bands:  3 eigenvalues not converged
     c_bands:  4 eigenvalues not converged
     c_bands:  4 eigenvalues not converged
     c_bands:  4 eigenvalues not converged
     c_bands:  5 eigenvalues not converged
     c_bands:  1 eigenvalues not converged
     c_bands:  1 eigenvalues not converged
     c_bands:  1 eigenvalues not converged
     c_bands:  5 eigenvalues not converged
     c_bands:  3 eigenvalues not converged
     c_bands:  3 eigenvalues not converged
     c_bands:  3 eigenvalues not converged
     c_bands:  3 eigenvalues not converged
     c_bands:  5 eigenvalues not converged
     c_bands:  1 eigenvalues not converged
     c_bands:  1 eigenvalues not converged
     c_bands:  1 eigenvalues not converged
     c_bands:  1 eigenvalues not converged
     c_bands:  5 eigenvalues not converged
     c_bands:  4 eigenvalues not converged
     c_bands:  4 eigenvalues not converged
     c_bands:  3 eigenvalues not converged
     c_bands:  5 eigenvalues not converged
     c_bands:  4 eigenvalues not converged
     c_bands:  1 eigenvalues not converged
     c_bands:  1 eigenvalues not converged
     c_bands:  5 eigenvalues not converged
     c_bands:  5 eigenvalues not converged
     c_bands:  3 eigenvalues not converged
     c_bands:  2 eigenvalues not converged
     c_bands:  1 eigenvalues not converged
     c_bands:  4 eigenvalues not converged
     c_bands:  5 eigenvalues not converged
     c_bands:  5 eigenvalues not converged
     c_bands:  5 eigenvalues not converged
     c_bands:  4 eigenvalues not converged
     c_bands:  5 eigenvalues not converged
     c_bands:  1 eigenvalues not converged
     c_bands:  4 eigenvalues not converged
     c_bands:  2 eigenvalues not converged
     c_bands:  4 eigenvalues not converged
     c_bands:  4 eigenvalues not converged
     c_bands:  5 eigenvalues not converged
     c_bands:  5 eigenvalues not converged
     c_bands:  5 eigenvalues not converged
     c_bands:  1 eigenvalues not converged
     c_bands:  3 eigenvalues not converged
     c_bands:  3 eigenvalues not converged
     c_bands:  3 eigenvalues not converged
     c_bands:  1 eigenvalues not converged
     c_bands:  1 eigenvalues not converged
     c_bands:  5 eigenvalues not converged
     c_bands:  1 eigenvalues not converged
     c_bands:  4 eigenvalues not converged
     c_bands:  5 eigenvalues not converged
     c_bands:  1 eigenvalues not converged
     c_bands:  1 eigenvalues not converged
     c_bands:  3 eigenvalues not converged
     c_bands:  3 eigenvalues not converged
     c_bands:  3 eigenvalues not converged
     c_bands:  4 eigenvalues not converged
     c_bands:  1 eigenvalues not converged
     c_bands:  5 eigenvalues not converged
     c_bands:  4 eigenvalues not converged
     c_bands:  3 eigenvalues not converged
     c_bands:  1 eigenvalues not converged
     c_bands:  3 eigenvalues not converged
     c_bands:  4 eigenvalues not converged
     c_bands:  4 eigenvalues not converged
     c_bands:  4 eigenvalues not converged
     c_bands:  1 eigenvalues not converged
     c_bands:  1 eigenvalues not converged
     c_bands:  3 eigenvalues not converged
     c_bands:  3 eigenvalues not converged
     c_bands:  3 eigenvalues not converged
     c_bands:  4 eigenvalues not converged
     c_bands:  3 eigenvalues not converged
     c_bands:  4 eigenvalues not converged
     c_bands:  4 eigenvalues not converged
     c_bands:  4 eigenvalues not converged
     c_bands:  4 eigenvalues not converged
     c_bands:  4 eigenvalues not converged
     c_bands:  3 eigenvalues not converged
     c_bands:  3 eigenvalues not converged
     c_bands:  3 eigenvalues not converged
     c_bands:  3 eigenvalues not converged
     c_bands:  2 eigenvalues not converged
     c_bands:  3 eigenvalues not converged
     c_bands:  3 eigenvalues not converged
     c_bands:  3 eigenvalues not converged
     c_bands:  4 eigenvalues not converged
     c_bands:  3 eigenvalues not converged
     c_bands:  4 eigenvalues not converged
     c_bands:  3 eigenvalues not converged
     c_bands:  3 eigenvalues not converged
     c_bands:  3 eigenvalues not converged
     c_bands:  3 eigenvalues not converged
     c_bands:  3 eigenvalues not converged
     c_bands:  3 eigenvalues not converged
     c_bands:  3 eigenvalues not converged
     c_bands:  1 eigenvalues not converged
     c_bands:  4 eigenvalues not converged
     c_bands:  4 eigenvalues not converged
     c_bands:  4 eigenvalues not converged
     c_bands:  4 eigenvalues not converged
     c_bands:  4 eigenvalues not converged
     c_bands:  3 eigenvalues not converged
     c_bands:  4 eigenvalues not converged
     c_bands:  3 eigenvalues not converged
     c_bands:  4 eigenvalues not converged
     c_bands:  3 eigenvalues not converged
     c_bands:  1 eigenvalues not converged
     c_bands:  1 eigenvalues not converged
     c_bands:  4 eigenvalues not converged
     c_bands:  4 eigenvalues not converged
     c_bands:  4 eigenvalues not converged
     c_bands:  3 eigenvalues not converged
     c_bands:  1 eigenvalues not converged
     c_bands:  3 eigenvalues not converged
     c_bands:  4 eigenvalues not converged
     c_bands:  1 eigenvalues not converged
     c_bands:  3 eigenvalues not converged
     c_bands:  3 eigenvalues not converged
     c_bands:  3 eigenvalues not converged
     c_bands:  1 eigenvalues not converged
     c_bands:  1 eigenvalues not converged
     c_bands:  1 eigenvalues not converged
     c_bands:  4 eigenvalues not converged
     c_bands:  1 eigenvalues not converged
     c_bands:  4 eigenvalues not converged
     c_bands:  3 eigenvalues not converged
     c_bands:  3 eigenvalues not converged
     c_bands:  5 eigenvalues not converged
     c_bands:  1 eigenvalues not converged
     c_bands:  5 eigenvalues not converged
     c_bands:  5 eigenvalues not converged
     c_bands:  4 eigenvalues not converged
     c_bands:  4 eigenvalues not converged
     c_bands:  4 eigenvalues not converged
     c_bands:  3 eigenvalues not converged
     c_bands:  4 eigenvalues not converged
     c_bands:  5 eigenvalues not converged
     c_bands:  5 eigenvalues not converged
     c_bands:  4 eigenvalues not converged
     c_bands:  4 eigenvalues not converged
     c_bands:  4 eigenvalues not converged
     c_bands:  3 eigenvalues not converged
     c_bands:  3 eigenvalues not converged
     c_bands:  3 eigenvalues not converged
     c_bands:  4 eigenvalues not converged
     c_bands:  3 eigenvalues not converged
     c_bands:  4 eigenvalues not converged
     c_bands:  4 eigenvalues not converged
     c_bands:  5 eigenvalues not converged
     c_bands:  5 eigenvalues not converged
     c_bands:  3 eigenvalues not converged
     c_bands:  3 eigenvalues not converged
     c_bands:  3 eigenvalues not converged
     c_bands:  4 eigenvalues not converged
     c_bands:  4 eigenvalues not converged
     c_bands:  5 eigenvalues not converged
     c_bands:  5 eigenvalues not converged
     c_bands:  1 eigenvalues not converged
     c_bands:  4 eigenvalues not converged
     c_bands:  3 eigenvalues not converged
     c_bands:  3 eigenvalues not converged
     c_bands:  4 eigenvalues not converged
     c_bands:  1 eigenvalues not converged
     c_bands:  1 eigenvalues not converged
     c_bands:  1 eigenvalues not converged
     c_bands:  1 eigenvalues not converged
     c_bands:  3 eigenvalues not converged
     c_bands:  3 eigenvalues not converged
     c_bands:  3 eigenvalues not converged
     c_bands:  3 eigenvalues not converged
     c_bands:  3 eigenvalues not converged
     c_bands:  4 eigenvalues not converged
     c_bands:  3 eigenvalues not converged
     c_bands:  3 eigenvalues not converged
     c_bands:  3 eigenvalues not converged
     c_bands:  3 eigenvalues not converged
     c_bands:  3 eigenvalues not converged
     c_bands:  3 eigenvalues not converged
     c_bands:  3 eigenvalues not converged
     c_bands:  4 eigenvalues not converged
     c_bands:  4 eigenvalues not converged
     c_bands:  3 eigenvalues not converged
     c_bands:  4 eigenvalues not converged
     c_bands:  3 eigenvalues not converged
     c_bands:  3 eigenvalues not converged
     c_bands:  3 eigenvalues not converged
     c_bands:  3 eigenvalues not converged
     c_bands:  3 eigenvalues not converged
     c_bands:  3 eigenvalues not converged
     c_bands:  3 eigenvalues not converged
     c_bands:  3 eigenvalues not converged
     c_bands:  3 eigenvalues not converged
     c_bands:  3 eigenvalues not converged
     c_bands:  4 eigenvalues not converged
     c_bands:  3 eigenvalues not converged
     c_bands:  3 eigenvalues not converged
     c_bands:  3 eigenvalues not converged
     c_bands:  3 eigenvalues not converged
     c_bands:  2 eigenvalues not converged
     c_bands:  3 eigenvalues not converged
     c_bands:  3 eigenvalues not converged
     c_bands:  3 eigenvalues not converged
     c_bands:  3 eigenvalues not converged
     c_bands:  3 eigenvalues not converged
     c_bands:  4 eigenvalues not converged
     c_bands:  4 eigenvalues not converged
     c_bands:  3 eigenvalues not converged
     c_bands:  3 eigenvalues not converged
     c_bands:  3 eigenvalues not converged
     c_bands:  3 eigenvalues not converged
     c_bands:  3 eigenvalues not converged
     c_bands:  2 eigenvalues not converged
     c_bands:  3 eigenvalues not converged
     c_bands:  3 eigenvalues not converged
     c_bands:  3 eigenvalues not converged
     c_bands:  3 eigenvalues not converged
     c_bands:  3 eigenvalues not converged
     c_bands:  4 eigenvalues not converged
     c_bands:  1 eigenvalues not converged
     c_bands:  3 eigenvalues not converged
     c_bands:  3 eigenvalues not converged
     c_bands:  3 eigenvalues not converged
     c_bands:  3 eigenvalues not converged
     c_bands:  3 eigenvalues not converged
     c_bands:  3 eigenvalues not converged
     c_bands:  1 eigenvalues not converged
     c_bands:  3 eigenvalues not converged
     c_bands:  4 eigenvalues not converged
     c_bands:  3 eigenvalues not converged
     c_bands:  3 eigenvalues not converged
     c_bands:  3 eigenvalues not converged
     c_bands:  3 eigenvalues not converged
     c_bands:  3 eigenvalues not converged
     c_bands:  4 eigenvalues not converged
     c_bands:  4 eigenvalues not converged
     c_bands:  1 eigenvalues not converged
     c_bands:  1 eigenvalues not converged
     c_bands:  3 eigenvalues not converged
     c_bands:  3 eigenvalues not converged
     c_bands:  3 eigenvalues not converged
     c_bands:  3 eigenvalues not converged
     c_bands:  4 eigenvalues not converged
     c_bands:  1 eigenvalues not converged
     c_bands:  4 eigenvalues not converged
     c_bands:  3 eigenvalues not converged
     c_bands:  4 eigenvalues not converged
     c_bands:  3 eigenvalues not converged
     c_bands:  4 eigenvalues not converged
     c_bands:  3 eigenvalues not converged
     c_bands:  4 eigenvalues not converged
     c_bands:  2 eigenvalues not converged
     c_bands:  5 eigenvalues not converged
     c_bands:  5 eigenvalues not converged
     c_bands:  2 eigenvalues not converged
     c_bands:  4 eigenvalues not converged
     c_bands:  4 eigenvalues not converged
     c_bands:  4 eigenvalues not converged
     c_bands:  4 eigenvalues not converged
     c_bands:  4 eigenvalues not converged
     c_bands:  3 eigenvalues not converged
     c_bands:  4 eigenvalues not converged
     c_bands:  5 eigenvalues not converged
     c_bands:  1 eigenvalues not converged
     c_bands:  2 eigenvalues not converged
     c_bands:  3 eigenvalues not converged
     c_bands:  3 eigenvalues not converged
     c_bands:  4 eigenvalues not converged
     c_bands:  4 eigenvalues not converged
     c_bands:  4 eigenvalues not converged
     c_bands:  4 eigenvalues not converged
     c_bands:  4 eigenvalues not converged
     c_bands:  5 eigenvalues not converged
     c_bands:  3 eigenvalues not converged
     c_bands:  3 eigenvalues not converged
     c_bands:  4 eigenvalues not converged
     c_bands:  3 eigenvalues not converged
     c_bands:  4 eigenvalues not converged
     c_bands:  4 eigenvalues not converged
     c_bands:  3 eigenvalues not converged
     c_bands:  4 eigenvalues not converged
     c_bands:  3 eigenvalues not converged
     c_bands:  1 eigenvalues not converged
     c_bands:  4 eigenvalues not converged
     c_bands:  3 eigenvalues not converged
     c_bands:  4 eigenvalues not converged
     c_bands:  3 eigenvalues not converged
     c_bands:  3 eigenvalues not converged
     c_bands:  3 eigenvalues not converged
     c_bands:  3 eigenvalues not converged
     c_bands:  3 eigenvalues not converged
     c_bands:  3 eigenvalues not converged
     c_bands:  3 eigenvalues not converged
     c_bands:  1 eigenvalues not converged
     c_bands:  4 eigenvalues not converged
     c_bands:  4 eigenvalues not converged
     c_bands:  3 eigenvalues not converged
     c_bands:  1 eigenvalues not converged
     c_bands:  3 eigenvalues not converged
     c_bands:  3 eigenvalues not converged
     c_bands:  3 eigenvalues not converged
     c_bands:  3 eigenvalues not converged
     c_bands:  3 eigenvalues not converged
     c_bands:  3 eigenvalues not converged
     c_bands:  3 eigenvalues not converged
     c_bands:  3 eigenvalues not converged
     c_bands:  3 eigenvalues not converged
     c_bands:  4 eigenvalues not converged
     c_bands:  4 eigenvalues not converged
     c_bands:  3 eigenvalues not converged
     c_bands:  3 eigenvalues not converged
     c_bands:  3 eigenvalues not converged
     c_bands:  3 eigenvalues not converged
     c_bands:  3 eigenvalues not converged
     c_bands:  3 eigenvalues not converged
     c_bands:  3 eigenvalues not converged
     c_bands:  4 eigenvalues not converged
     c_bands:  4 eigenvalues not converged
     c_bands:  4 eigenvalues not converged
     c_bands:  4 eigenvalues not converged
     c_bands:  3 eigenvalues not converged
     c_bands:  3 eigenvalues not converged
     c_bands:  3 eigenvalues not converged
     c_bands:  3 eigenvalues not converged
     c_bands:  2 eigenvalues not converged
     c_bands:  3 eigenvalues not converged
     c_bands:  3 eigenvalues not converged
     c_bands:  3 eigenvalues not converged
     c_bands:  3 eigenvalues not converged
     c_bands:  4 eigenvalues not converged
     c_bands:  4 eigenvalues not converged
     c_bands:  4 eigenvalues not converged
     c_bands:  4 eigenvalues not converged
     c_bands:  3 eigenvalues not converged
     c_bands:  3 eigenvalues not converged
     c_bands:  3 eigenvalues not converged
     c_bands:  3 eigenvalues not converged
     c_bands:  3 eigenvalues not converged
     c_bands:  3 eigenvalues not converged
     c_bands:  3 eigenvalues not converged
     c_bands:  4 eigenvalues not converged
     c_bands:  4 eigenvalues not converged
     c_bands:  3 eigenvalues not converged
     c_bands:  4 eigenvalues not converged
     c_bands:  1 eigenvalues not converged
     c_bands:  3 eigenvalues not converged
     c_bands:  3 eigenvalues not converged
     c_bands:  3 eigenvalues not converged
     c_bands:  2 eigenvalues not converged
     c_bands:  3 eigenvalues not converged
     c_bands:  3 eigenvalues not converged
     c_bands:  3 eigenvalues not converged
     c_bands:  1 eigenvalues not converged
     c_bands:  4 eigenvalues not converged
     c_bands:  3 eigenvalues not converged
     c_bands:  4 eigenvalues not converged
     c_bands:  4 eigenvalues not converged
     c_bands:  3 eigenvalues not converged
     c_bands:  3 eigenvalues not converged
     c_bands:  3 eigenvalues not converged
     c_bands:  3 eigenvalues not converged
     c_bands:  3 eigenvalues not converged
     c_bands:  3 eigenvalues not converged
     c_bands:  3 eigenvalues not converged
     c_bands:  1 eigenvalues not converged
     c_bands:  3 eigenvalues not converged
     c_bands:  4 eigenvalues not converged
     c_bands:  1 eigenvalues not converged
     c_bands:  4 eigenvalues not converged
     c_bands:  1 eigenvalues not converged
     c_bands:  4 eigenvalues not converged
     c_bands:  3 eigenvalues not converged
     c_bands:  4 eigenvalues not converged
     c_bands:  4 eigenvalues not converged
     c_bands:  1 eigenvalues not converged
     c_bands:  5 eigenvalues not converged
     c_bands:  5 eigenvalues not converged
     c_bands:  4 eigenvalues not converged
     c_bands:  4 eigenvalues not converged
     c_bands:  4 eigenvalues not converged
     c_bands:  4 eigenvalues not converged
     c_bands:  3 eigenvalues not converged
     c_bands:  4 eigenvalues not converged
     c_bands:  4 eigenvalues not converged
     c_bands:  4 eigenvalues not converged
     c_bands:  5 eigenvalues not converged
     c_bands:  4 eigenvalues not converged
     c_bands:  2 eigenvalues not converged
     c_bands:  4 eigenvalues not converged
     c_bands:  3 eigenvalues not converged
     c_bands:  3 eigenvalues not converged
     c_bands:  4 eigenvalues not converged
     c_bands:  3 eigenvalues not converged
     c_bands:  3 eigenvalues not converged
     c_bands:  4 eigenvalues not converged
     c_bands:  4 eigenvalues not converged
     c_bands:  3 eigenvalues not converged
     c_bands:  3 eigenvalues not converged
     c_bands:  2 eigenvalues not converged
     c_bands:  2 eigenvalues not converged
     c_bands:  1 eigenvalues not converged
     c_bands:  3 eigenvalues not converged
     c_bands:  3 eigenvalues not converged
     c_bands:  4 eigenvalues not converged
     c_bands:  3 eigenvalues not converged
     c_bands:  4 eigenvalues not converged
     c_bands:  4 eigenvalues not converged
     c_bands:  4 eigenvalues not converged
     c_bands:  3 eigenvalues not converged
     c_bands:  3 eigenvalues not converged
     c_bands:  2 eigenvalues not converged
     c_bands:  3 eigenvalues not converged
     c_bands:  3 eigenvalues not converged
     c_bands:  4 eigenvalues not converged
     c_bands:  4 eigenvalues not converged
     c_bands:  4 eigenvalues not converged
     c_bands:  4 eigenvalues not converged
     c_bands:  4 eigenvalues not converged
     c_bands:  4 eigenvalues not converged
     c_bands:  4 eigenvalues not converged
     c_bands:  3 eigenvalues not converged
     c_bands:  3 eigenvalues not converged
     c_bands:  3 eigenvalues not converged
     c_bands:  3 eigenvalues not converged
     c_bands:  3 eigenvalues not converged
     c_bands:  3 eigenvalues not converged
     c_bands:  3 eigenvalues not converged
     c_bands:  3 eigenvalues not converged
     c_bands:  3 eigenvalues not converged
     c_bands:  3 eigenvalues not converged
     c_bands:  3 eigenvalues not converged
     c_bands:  3 eigenvalues not converged
     c_bands:  3 eigenvalues not converged
     c_bands:  4 eigenvalues not converged
     c_bands:  3 eigenvalues not converged
     c_bands:  4 eigenvalues not converged
     c_bands:  4 eigenvalues not converged
     c_bands:  3 eigenvalues not converged
     c_bands:  3 eigenvalues not converged
     c_bands:  3 eigenvalues not converged
     c_bands:  3 eigenvalues not converged
     c_bands:  3 eigenvalues not converged
     c_bands:  3 eigenvalues not converged
     c_bands:  3 eigenvalues not converged
     c_bands:  3 eigenvalues not converged
     c_bands:  4 eigenvalues not converged
     c_bands:  4 eigenvalues not converged
     c_bands:  4 eigenvalues not converged
     c_bands:  3 eigenvalues not converged
     c_bands:  4 eigenvalues not converged
     c_bands:  3 eigenvalues not converged
     c_bands:  3 eigenvalues not converged
     c_bands:  3 eigenvalues not converged
     c_bands:  3 eigenvalues not converged
     c_bands:  3 eigenvalues not converged
     c_bands:  3 eigenvalues not converged
     c_bands:  4 eigenvalues not converged
     c_bands:  4 eigenvalues not converged
     c_bands:  4 eigenvalues not converged
     c_bands:  3 eigenvalues not converged
     c_bands:  4 eigenvalues not converged
     c_bands:  4 eigenvalues not converged
     c_bands:  3 eigenvalues not converged
     c_bands:  3 eigenvalues not converged
     c_bands:  3 eigenvalues not converged
     c_bands:  3 eigenvalues not converged
     c_bands:  3 eigenvalues not converged
     c_bands:  3 eigenvalues not converged
     c_bands:  3 eigenvalues not converged
     c_bands:  4 eigenvalues not converged
     c_bands:  4 eigenvalues not converged
     c_bands:  4 eigenvalues not converged
     c_bands:  3 eigenvalues not converged
     c_bands:  4 eigenvalues not converged
     c_bands:  3 eigenvalues not converged
     c_bands:  3 eigenvalues not converged
     c_bands:  3 eigenvalues not converged
     c_bands:  3 eigenvalues not converged
     c_bands:  3 eigenvalues not converged
     c_bands:  3 eigenvalues not converged
     c_bands:  2 eigenvalues not converged
     c_bands:  4 eigenvalues not converged
     c_bands:  3 eigenvalues not converged
     c_bands:  4 eigenvalues not converged
     c_bands:  4 eigenvalues not converged
     c_bands:  4 eigenvalues not converged
     c_bands:  3 eigenvalues not converged
     c_bands:  3 eigenvalues not converged
     c_bands:  3 eigenvalues not converged
     c_bands:  3 eigenvalues not converged
     c_bands:  3 eigenvalues not converged
     c_bands:  3 eigenvalues not converged
     c_bands:  4 eigenvalues not converged
     c_bands:  4 eigenvalues not converged
     c_bands:  4 eigenvalues not converged
     c_bands:  3 eigenvalues not converged
     c_bands:  4 eigenvalues not converged
     c_bands:  3 eigenvalues not converged
     c_bands:  3 eigenvalues not converged
     c_bands:  3 eigenvalues not converged
     c_bands:  3 eigenvalues not converged
     c_bands:  2 eigenvalues not converged
     c_bands:  3 eigenvalues not converged
     c_bands:  3 eigenvalues not converged
     c_bands:  3 eigenvalues not converged
     c_bands:  3 eigenvalues not converged
     c_bands:  3 eigenvalues not converged
     c_bands:  3 eigenvalues not converged
     c_bands:  4 eigenvalues not converged
     c_bands:  3 eigenvalues not converged
     c_bands:  4 eigenvalues not converged
     c_bands:  4 eigenvalues not converged
     c_bands:  4 eigenvalues not converged
     c_bands:  4 eigenvalues not converged
     c_bands:  4 eigenvalues not converged
     c_bands:  3 eigenvalues not converged
     c_bands:  3 eigenvalues not converged
     c_bands:  3 eigenvalues not converged
     c_bands:  1 eigenvalues not converged
     c_bands:  3 eigenvalues not converged
     c_bands:  3 eigenvalues not converged
     c_bands:  3 eigenvalues not converged
     c_bands:  4 eigenvalues not converged
     c_bands:  4 eigenvalues not converged
     c_bands:  4 eigenvalues not converged
     c_bands:  3 eigenvalues not converged
     c_bands:  4 eigenvalues not converged
     c_bands:  3 eigenvalues not converged
     c_bands:  3 eigenvalues not converged
     c_bands:  4 eigenvalues not converged
     c_bands:  1 eigenvalues not converged
     c_bands:  2 eigenvalues not converged
     c_bands:  3 eigenvalues not converged
     c_bands:  3 eigenvalues not converged
     c_bands:  4 eigenvalues not converged
     c_bands:  3 eigenvalues not converged
     c_bands:  2 eigenvalues not converged
     c_bands:  2 eigenvalues not converged
     c_bands:  2 eigenvalues not converged
     c_bands:  3 eigenvalues not converged
     c_bands:  4 eigenvalues not converged
     c_bands:  4 eigenvalues not converged
     c_bands:  4 eigenvalues not converged
     c_bands:  3 eigenvalues not converged
     c_bands:  4 eigenvalues not converged
     c_bands:  4 eigenvalues not converged
     c_bands:  4 eigenvalues not converged
     c_bands:  3 eigenvalues not converged
     c_bands:  2 eigenvalues not converged
     c_bands:  2 eigenvalues not converged
     c_bands:  3 eigenvalues not converged
     c_bands:  3 eigenvalues not converged
     c_bands:  3 eigenvalues not converged
     c_bands:  4 eigenvalues not converged
     c_bands:  3 eigenvalues not converged
     c_bands:  3 eigenvalues not converged
     c_bands:  4 eigenvalues not converged
     c_bands:  3 eigenvalues not converged
     c_bands:  3 eigenvalues not converged
     c_bands:  3 eigenvalues not converged
     c_bands:  3 eigenvalues not converged
     c_bands:  2 eigenvalues not converged
     c_bands:  3 eigenvalues not converged
     c_bands:  3 eigenvalues not converged
     c_bands:  3 eigenvalues not converged
     c_bands:  3 eigenvalues not converged
     c_bands:  3 eigenvalues not converged
     c_bands:  2 eigenvalues not converged
     c_bands:  3 eigenvalues not converged
     c_bands:  3 eigenvalues not converged
     c_bands:  3 eigenvalues not converged
     c_bands:  3 eigenvalues not converged
     c_bands:  3 eigenvalues not converged
     c_bands:  4 eigenvalues not converged
     c_bands:  4 eigenvalues not converged
     c_bands:  3 eigenvalues not converged
     c_bands:  3 eigenvalues not converged
     c_bands:  3 eigenvalues not converged
     c_bands:  3 eigenvalues not converged
     c_bands:  2 eigenvalues not converged
     c_bands:  3 eigenvalues not converged
     c_bands:  3 eigenvalues not converged
     c_bands:  3 eigenvalues not converged
     c_bands:  4 eigenvalues not converged
     c_bands:  4 eigenvalues not converged
     c_bands:  3 eigenvalues not converged
     c_bands:  4 eigenvalues not converged
     c_bands:  4 eigenvalues not converged
     c_bands:  4 eigenvalues not converged
     c_bands:  3 eigenvalues not converged
     c_bands:  3 eigenvalues not converged
     c_bands:  3 eigenvalues not converged
     c_bands:  3 eigenvalues not converged
     c_bands:  3 eigenvalues not converged
     c_bands:  3 eigenvalues not converged
     c_bands:  3 eigenvalues not converged
     c_bands:  4 eigenvalues not converged
     c_bands:  2 eigenvalues not converged
     c_bands:  3 eigenvalues not converged
     c_bands:  4 eigenvalues not converged
     c_bands:  2 eigenvalues not converged
     c_bands:  3 eigenvalues not converged
     c_bands:  3 eigenvalues not converged
     c_bands:  2 eigenvalues not converged
     ethr =  1.00E-06,  avg # of iterations = 23.1

     total cpu time spent up to now is     3730.8 secs

     total energy              =    -139.19296198 Ry
     estimated scf accuracy    <       0.25469275 Ry

     iteration #  2     ecut=    80.00 Ry     beta= 0.40
     Davidson diagonalization with overlap
     ethr =  1.11E-03,  avg # of iterations =  2.0

     total cpu time spent up to now is     3764.4 secs

     total energy              =    -139.24336281 Ry
     estimated scf accuracy    <       0.03956988 Ry

     iteration #  3     ecut=    80.00 Ry     beta= 0.40
     Davidson diagonalization with overlap
     ethr =  1.72E-04,  avg # of iterations =  2.0

     total cpu time spent up to now is     3793.1 secs

     total energy              =    -139.24657450 Ry
     estimated scf accuracy    <       0.00527841 Ry

     iteration #  4     ecut=    80.00 Ry     beta= 0.40
     Davidson diagonalization with overlap
     ethr =  2.29E-05,  avg # of iterations =  6.2

     total cpu time spent up to now is     3836.1 secs

     total energy              =    -139.24752137 Ry
     estimated scf accuracy    <       0.00104928 Ry

     iteration #  5     ecut=    80.00 Ry     beta= 0.40
     Davidson diagonalization with overlap
     c_bands:  1 eigenvalues not converged
     c_bands:  1 eigenvalues not converged
     ethr =  4.56E-06,  avg # of iterations =  5.4

     total cpu time spent up to now is     3876.8 secs

     total energy              =    -139.24780039 Ry
     estimated scf accuracy    <       0.00089592 Ry

     iteration #  6     ecut=    80.00 Ry     beta= 0.40
     Davidson diagonalization with overlap
     ethr =  3.90E-06,  avg # of iterations =  2.0

     total cpu time spent up to now is     3907.7 secs

     total energy              =    -139.24798863 Ry
     estimated scf accuracy    <       0.00000550 Ry

     iteration #  7     ecut=    80.00 Ry     beta= 0.40
     Davidson diagonalization with overlap
     c_bands:  1 eigenvalues not converged
     c_bands:  1 eigenvalues not converged
     c_bands:  1 eigenvalues not converged
     c_bands:  1 eigenvalues not converged
     ethr =  2.39E-08,  avg # of iterations =  6.3

     total cpu time spent up to now is     3961.6 secs

     total energy              =    -139.24799472 Ry
     estimated scf accuracy    <       0.00002280 Ry

     iteration #  8     ecut=    80.00 Ry     beta= 0.40
     Davidson diagonalization with overlap
     ethr =  2.39E-08,  avg # of iterations =  2.2

     total cpu time spent up to now is     3994.5 secs

     total energy              =    -139.24799506 Ry
     estimated scf accuracy    <       0.00000299 Ry

     iteration #  9     ecut=    80.00 Ry     beta= 0.40
     Davidson diagonalization with overlap
     ethr =  1.30E-08,  avg # of iterations =  4.2

     total cpu time spent up to now is     4031.3 secs

     total energy              =    -139.24799635 Ry
     estimated scf accuracy    <       0.00000062 Ry

     iteration # 10     ecut=    80.00 Ry     beta= 0.40
     Davidson diagonalization with overlap
     ethr =  2.69E-09,  avg # of iterations =  1.8

     total cpu time spent up to now is     4059.7 secs

     total energy              =    -139.24799609 Ry
     estimated scf accuracy    <       0.00000045 Ry

     iteration # 11     ecut=    80.00 Ry     beta= 0.40
     Davidson diagonalization with overlap
     ethr =  1.94E-09,  avg # of iterations =  3.1

     total cpu time spent up to now is     4094.5 secs

     total energy              =    -139.24799624 Ry
     estimated scf accuracy    <       0.00000019 Ry

     iteration # 12     ecut=    80.00 Ry     beta= 0.40
     Davidson diagonalization with overlap
     ethr =  8.09E-10,  avg # of iterations =  1.8

     total cpu time spent up to now is     4123.9 secs

     total energy              =    -139.24799627 Ry
     estimated scf accuracy    <          3.8E-09 Ry

     iteration # 13     ecut=    80.00 Ry     beta= 0.40
     Davidson diagonalization with overlap
     ethr =  1.65E-11,  avg # of iterations =  4.7

     total cpu time spent up to now is     4163.8 secs

     total energy              =    -139.24799626 Ry
     estimated scf accuracy    <          9.4E-09 Ry

     iteration # 14     ecut=    80.00 Ry     beta= 0.40
     Davidson diagonalization with overlap
     ethr =  1.65E-11,  avg # of iterations =  3.7

     total cpu time spent up to now is     4201.6 secs

     total energy              =    -139.24799627 Ry
     estimated scf accuracy    <          1.1E-09 Ry

     iteration # 15     ecut=    80.00 Ry     beta= 0.40
     Davidson diagonalization with overlap
     ethr =  4.64E-12,  avg # of iterations =  3.6

     total cpu time spent up to now is     4238.0 secs

     total energy              =    -139.24799627 Ry
     estimated scf accuracy    <          6.3E-09 Ry

     iteration # 16     ecut=    80.00 Ry     beta= 0.40
     Davidson diagonalization with overlap
     ethr =  4.64E-12,  avg # of iterations =  1.4

     total cpu time spent up to now is     4265.6 secs

     total energy              =    -139.24799627 Ry
     estimated scf accuracy    <          3.5E-09 Ry

     iteration # 17     ecut=    80.00 Ry     beta= 0.40
     Davidson diagonalization with overlap
     ethr =  4.64E-12,  avg # of iterations =  1.0

     total cpu time spent up to now is     4292.7 secs

     total energy              =    -139.24799627 Ry
     estimated scf accuracy    <          5.8E-09 Ry

     iteration # 18     ecut=    80.00 Ry     beta= 0.40
     Davidson diagonalization with overlap
     ethr =  4.64E-12,  avg # of iterations =  2.1

     total cpu time spent up to now is     4325.4 secs

     total energy              =    -139.24799627 Ry
     estimated scf accuracy    <          8.7E-10 Ry

     iteration # 19     ecut=    80.00 Ry     beta= 0.40
     Davidson diagonalization with overlap
     ethr =  3.76E-12,  avg # of iterations =  2.4

     total cpu time spent up to now is     4357.1 secs

     total energy              =    -139.24799627 Ry
     estimated scf accuracy    <          1.3E-11 Ry

     iteration # 20     ecut=    80.00 Ry     beta= 0.40
     Davidson diagonalization with overlap
     ethr =  1.00E-13,  avg # of iterations =  5.0

     total cpu time spent up to now is     4403.3 secs

     total energy              =    -139.24799627 Ry
     estimated scf accuracy    <          3.3E-12 Ry

     iteration # 21     ecut=    80.00 Ry     beta= 0.40
     Davidson diagonalization with overlap
     ethr =  1.00E-13,  avg # of iterations =  2.0

     total cpu time spent up to now is     4434.5 secs

     total energy              =    -139.24799627 Ry
     estimated scf accuracy    <          1.1E-11 Ry

     iteration # 22     ecut=    80.00 Ry     beta= 0.40
     Davidson diagonalization with overlap
     ethr =  1.00E-13,  avg # of iterations =  1.0

     total cpu time spent up to now is     4461.5 secs

     total energy              =    -139.24799627 Ry
     estimated scf accuracy    <          5.3E-12 Ry

     iteration # 23     ecut=    80.00 Ry     beta= 0.40
     Davidson diagonalization with overlap
     ethr =  1.00E-13,  avg # of iterations =  1.6

     total cpu time spent up to now is     4489.8 secs

     End of self-consistent calculation

     Number of k-points >= 100: set verbosity='high' to print the bands.

     the Fermi energy is    11.3630 ev

!    total energy              =    -139.24799627 Ry
     estimated scf accuracy    <          8.2E-13 Ry
     smearing contrib. (-TS)   =      -0.00057530 Ry
     internal energy E=F+TS    =    -139.24742097 Ry

     The total energy is F=E-TS. E is the sum of the following terms:
     one-electron contribution =      -2.18835287 Ry
     hartree contribution      =      16.36229635 Ry
     xc contribution           =     -44.53745629 Ry
     ewald contribution        =    -108.88390815 Ry

     convergence has been achieved in  23 iterations

     Forces acting on atoms (cartesian axes, Ry/au):

     atom    1 type  1   force =    -0.00000001    0.00000001    0.00000000
     atom    2 type  2   force =     0.00000003   -0.00000002   -0.00000001
     atom    3 type  3   force =    -0.00000001    0.00000000    0.00000000
     atom    4 type  3   force =    -0.00000001    0.00000000    0.00000000
     atom    5 type  3   force =    -0.00000001    0.00000000    0.00000000

     Total force =     0.000000     Total SCF correction =     0.000000
     SCF correction compared to forces is large: reduce conv_thr to get better values


     Computing stress (Cartesian axis) and pressure

          total   stress  (Ry/bohr**3)                   (kbar)     P=       50.00
   0.00033989  -0.00000000  -0.00000000           50.00       -0.00       -0.00
  -0.00000000   0.00033989  -0.00000000           -0.00       50.00       -0.00
  -0.00000000  -0.00000000   0.00033989           -0.00       -0.00       50.00


     Writing output data file ./out/srpth3.save/

     init_run     :     29.65s CPU     32.07s WALL (       2 calls)
     electrons    :   4027.55s CPU   4384.36s WALL (       5 calls)
     update_pot   :      8.45s CPU      8.47s WALL (       3 calls)
     forces       :     27.10s CPU     27.92s WALL (       5 calls)
     stress       :     50.12s CPU     51.50s WALL (       5 calls)

     Called by init_run:
     wfcinit      :     24.46s CPU     26.75s WALL (       2 calls)
     potinit      :      1.54s CPU      1.55s WALL (       2 calls)
     hinit0       :      3.37s CPU      3.40s WALL (       2 calls)

     Called by electrons:
     c_bands      :   3578.28s CPU   3861.96s WALL (     120 calls)
     sum_band     :    440.10s CPU    503.16s WALL (     120 calls)
     v_of_rho     :      1.90s CPU      2.31s WALL (     123 calls)
     newd         :      7.14s CPU     17.08s WALL (     123 calls)
     mix_rho      :      0.28s CPU      0.31s WALL (     120 calls)

     Called by c_bands:
     init_us_2    :     64.72s CPU     65.83s WALL (  218736 calls)
     cegterg      :   3398.49s CPU   3680.54s WALL (  104320 calls)

     Called by *egterg:
     cdiaghg      :    102.05s CPU    104.02s WALL (  411821 calls)
     h_psi        :   2173.51s CPU   2442.87s WALL (  418057 calls)
     s_psi        :    281.33s CPU    284.36s WALL (  418057 calls)
     g_psi        :     19.50s CPU     19.70s WALL (  312001 calls)

     Called by h_psi:
     h_psi:calbec :    263.44s CPU    287.34s WALL (  418057 calls)
     vloc_psi     :   1623.02s CPU   1863.85s WALL (  418057 calls)
     add_vuspsi   :    279.99s CPU    284.65s WALL (  418057 calls)

     General routines
     calbec       :    381.85s CPU    414.22s WALL (  543917 calls)
     fft          :      1.37s CPU      1.66s WALL (    1719 calls)
     ffts         :      0.08s CPU      0.09s WALL (     243 calls)
     fftw         :   1733.87s CPU   1991.57s WALL (10662932 calls)
     interpolate  :      0.13s CPU      0.15s WALL (     123 calls)

     Parallel routines
     fft_scatt_xy :    167.31s CPU    191.89s WALL (10664894 calls)
     fft_scatt_yz :    555.87s CPU    648.20s WALL (10664894 calls)

     PWSCF        :      1h 9m CPU      1h15m WALL


   This run was terminated on:  14:37:50  31May2026            

=------------------------------------------------------------------------------=
   JOB DONE.
=------------------------------------------------------------------------------=
