
     Program PHONON v.6.7MaX starts on 31May2026 at 11:10:21 

     This program is part of the open-source Quantum ESPRESSO suite
     for quantum simulation of materials; please cite
         "P. Giannozzi et al., J. Phys.:Condens. Matter 21 395502 (2009);
         "P. Giannozzi et al., J. Phys.:Condens. Matter 29 465901 (2017);
          URL http://www.quantum-espresso.org", 
     in publications or presentations arising from this work. More details at
     http://www.quantum-espresso.org/quote

     Parallel version (MPI), running on     7 processors

     MPI processes distributed on     1 nodes
     R & G space division:  proc/nbgrp/npool/nimage =       7
     Reading input from ph.in
     Message from routine ph_restart_set_filename :
     cannot open file for reading or writing
     Message from routine ph_restart_set_filename :
     cannot open file for reading or writing
     Run is not recoverable starting from scratch

     Reading xml data from directory:

     ./out/yh6.save/
     file Y.pbe-spn-rrkjus_psl.1.0.0.UPF: wavefunction(s)  4S renormalized

     IMPORTANT: XC functional enforced from input :
     Exchange-correlation= PBE
                           (   1   4   3   4   0   0   0)
     Any further DFT definition will be discarded
     Please, verify this is what you really want


     Parallelization info
     --------------------
     sticks:   dense  smooth     PW     G-vecs:    dense   smooth      PW
     Min         294     116     40                 8399     2109     434
     Max         295     117     41                 8401     2111     435
     Sum        2061     817    281                58799    14771    3043

     Reading collected, re-writing distributed wavefunctions


     Dynamical matrices for ( 2, 2, 2)  uniform grid of q-points
     (   8 q-points):
       N         xq(1)         xq(2)         xq(3) 
       1   0.000000000   0.000000000   0.000000000
       2   0.004824548   0.444441424  -0.421280296
       3   0.421635354  -0.443804541  -0.018231927
       4   0.426459902   0.000636884  -0.439512223
       5  -0.439208908   0.022774321  -0.426136472
       6  -0.434384359   0.467215745  -0.847416768
       7  -0.017573554  -0.421030220  -0.444368399
       8  -0.012749005   0.023411205  -0.865648695

     Saving dvscf to file. Distribute only q points, not irreducible represetations.

     Calculation of q =    0.0000000   0.0000000   0.0000000

Possibly too few bands at point    1   0.00000   0.00000   0.00000

Possibly too few bands at point    2  -0.00060  -0.05556   0.05266

Possibly too few bands at point   10  -0.05270   0.05548   0.00228

Possibly too few bands at point   11  -0.05331  -0.00008   0.05494

Possibly too few bands at point  131   0.05490  -0.00285   0.05327

Possibly too few bands at point  146   0.05550   0.05271   0.00061

Possibly too few bands at point  147   0.00220   0.05263   0.05555

Possibly too few bands at point  148   0.00159  -0.00293   0.10821

Possibly too few bands at point  162   0.00280   0.10818   0.00289

Possibly too few bands at point  386   0.10821  -0.00277  -0.00167

     YH6 electron-phonon 2x2x2 q (RTSC sodalite — Im-3m, Troyan 2021 measured 

     bravais-lattice index     =            0
     lattice parameter (alat)  =       5.8509  a.u.
     unit-cell volume          =     154.1693 (a.u.)^3
     number of atoms/cell      =            7
     number of atomic types    =            2
     kinetic-energy cut-off    =      80.0000  Ry
     charge density cut-off    =     800.0000  Ry
     convergence threshold     =      1.0E-14
     beta                      =       0.3000
     number of iterations used =            4
     Exchange-correlation= PBE
                           (   1   4   3   4   0   0   0)


     celldm(1)=    5.85092  celldm(2)=    0.00000  celldm(3)=    0.00000
     celldm(4)=    0.00000  celldm(5)=    0.00000  celldm(6)=    0.00000

     crystal axes: (cart. coord. in units of alat)
               a(1) = (  0.6006  0.5466  0.5835 )  
               a(2) = ( -0.5536  0.5760  0.6013 )  
               a(3) = ( -0.5835 -0.5778  0.5706 )  

     reciprocal axes: (cart. coord. in units 2 pi/alat)
               b(1) = (  0.8784 -0.0455  0.8523 )  
               b(2) = ( -0.8433  0.8876  0.0365 )  
               b(3) = ( -0.0096 -0.8889  0.8426 )  


     Atoms inside the unit cell: 

     Cartesian axes

     site n.  atom      mass           positions (alat units)
        1     Y   88.9059   tau(    1) = (   -0.02691   -0.04557   -0.06033  )
        2     H    1.0080   tau(    2) = (   -0.00764    0.52355    0.24356  )
        3     H    1.0080   tau(    3) = (   -0.01088    0.22720    0.52438  )
        4     H    1.0080   tau(    4) = (   -0.30691   -0.05380    0.52119  )
        5     H    1.0080   tau(    5) = (    0.00085    0.50794    0.82064  )
        6     H    1.0080   tau(    6) = (   -0.02588   -0.34974    0.50902  )
        7     H    1.0080   tau(    7) = (   -0.88397   -0.03916    0.53010  )

     Computing dynamical matrix for 
                    q = (   0.0000000   0.0000000   0.0000000 )

      2 Sym.Ops. (with q -> -q+G )


     G cutoff =  693.7120  (   8401 G-vectors)     FFT grid: ( 54, 54, 54)
     G cutoff =  277.4848  (   2110 G-vectors)  smooth grid: ( 36, 36, 36)

     number of k points=  2052  Methfessel-Paxton smearing, width (Ry)=  0.0100

     PseudoPot. # 1 for Y  read from file:
     ./pseudo/Y.pbe-spn-rrkjus_psl.1.0.0.UPF
     MD5 check sum: 5fe32e6a006803c2ec2edff47948a3c8
     Pseudo is Ultrasoft + core correction, Zval = 11.0
     Generated using &quot;atomic&quot; code by A. Dal Corso  v.6.2.2
     Using radial grid of 1223 points,  6 beta functions with: 
                l(1) =   0
                l(2) =   0
                l(3) =   1
                l(4) =   1
                l(5) =   2
                l(6) =   2
     Q(r) pseudized with 0 coefficients 


     PseudoPot. # 2 for H  read from file:
     ./pseudo/H.pbe-rrkjus_psl.1.0.0.UPF
     MD5 check sum: 3f4114867bd07edc7f1424d066fc1888
     Pseudo is Ultrasoft, Zval =  1.0
     Generated using &quot;atomic&quot; code by A. Dal Corso  v.6.3MaX
     Using radial grid of  929 points,  2 beta functions with: 
                l(1) =   0
                l(2) =   0
     Q(r) pseudized with 0 coefficients 


     Mode symmetry, C_1 (1)     point group:


     Atomic displacements:
     There are   21 irreducible representations

     Representation     1      1 modes -  To be done

     Representation     2      1 modes -  To be done

     Representation     3      1 modes -  To be done

     Representation     4      1 modes -  To be done

     Representation     5      1 modes -  To be done

     Representation     6      1 modes -  To be done

     Representation     7      1 modes -  To be done

     Representation     8      1 modes -  To be done

     Representation     9      1 modes -  To be done

     Representation    10      1 modes -  To be done

     Representation    11      1 modes -  To be done

     Representation    12      1 modes -  To be done

     Representation    13      1 modes -  To be done

     Representation    14      1 modes -  To be done

     Representation    15      1 modes -  To be done

     Representation    16      1 modes -  To be done

     Representation    17      1 modes -  To be done

     Representation    18      1 modes -  To be done

     Representation    19      1 modes -  To be done

     Representation    20      1 modes -  To be done

     Representation    21      1 modes -  To be done



     Alpha used in Ewald sum =   2.8000
     PHONON       :     49.38s CPU     51.69s WALL



     Representation #   1 mode #   1

     Self-consistent Calculation

     Pert. #  1: Fermi energy shift (Ry) =     4.7915E-05     1.6941E-21

      iter #   1 total cpu time :    90.6 secs   av.it.:   6.4
      thresh= 1.000E-02 alpha_mix =  0.300 |ddv_scf|^2 =  2.981E-06

     Pert. #  1: Fermi energy shift (Ry) =     3.4669E-05    -1.0588E-22

      iter #   2 total cpu time :   134.8 secs   av.it.:   9.2
      thresh= 1.727E-04 alpha_mix =  0.300 |ddv_scf|^2 =  6.749E-07

     Pert. #  1: Fermi energy shift (Ry) =     2.2126E-05     1.3235E-23

      iter #   3 total cpu time :   180.8 secs   av.it.:   9.8
      thresh= 8.215E-05 alpha_mix =  0.300 |ddv_scf|^2 =  9.111E-09

     Pert. #  1: Fermi energy shift (Ry) =     2.1991E-05    -1.6544E-24

      iter #   4 total cpu time :   228.8 secs   av.it.:  10.2
      thresh= 9.545E-06 alpha_mix =  0.300 |ddv_scf|^2 =  7.969E-11

     Pert. #  1: Fermi energy shift (Ry) =     2.2215E-05     1.0340E-25

      iter #   5 total cpu time :   275.7 secs   av.it.:   9.9
      thresh= 8.927E-07 alpha_mix =  0.300 |ddv_scf|^2 =  1.770E-11

     Pert. #  1: Fermi energy shift (Ry) =     2.2468E-05    -2.0680E-25

      iter #   6 total cpu time :   322.9 secs   av.it.:  10.1
      thresh= 4.208E-07 alpha_mix =  0.300 |ddv_scf|^2 =  1.130E-13

     Pert. #  1: Fermi energy shift (Ry) =     2.2448E-05    -4.1359E-25

      iter #   7 total cpu time :   367.3 secs   av.it.:   9.3
      thresh= 3.361E-08 alpha_mix =  0.300 |ddv_scf|^2 =  1.633E-14

     Pert. #  1: Fermi energy shift (Ry) =     2.2445E-05    -4.1359E-25

      iter #   8 total cpu time :   413.3 secs   av.it.:   9.8
      thresh= 1.278E-08 alpha_mix =  0.300 |ddv_scf|^2 =  1.678E-16

     End of self-consistent calculation

     Convergence has been achieved 


     Representation #   2 mode #   2

     Self-consistent Calculation

     Pert. #  1: Fermi energy shift (Ry) =    -5.0643E-05     0.0000E+00

      iter #   1 total cpu time :   458.5 secs   av.it.:   6.4
      thresh= 1.000E-02 alpha_mix =  0.300 |ddv_scf|^2 =  2.981E-06

     Pert. #  1: Fermi energy shift (Ry) =    -4.3004E-05     0.0000E+00

      iter #   2 total cpu time :   502.1 secs   av.it.:   9.2
      thresh= 1.727E-04 alpha_mix =  0.300 |ddv_scf|^2 =  6.749E-07

     Pert. #  1: Fermi energy shift (Ry) =    -3.2686E-05     0.0000E+00

      iter #   3 total cpu time :   547.6 secs   av.it.:   9.8
      thresh= 8.215E-05 alpha_mix =  0.300 |ddv_scf|^2 =  9.111E-09

     Pert. #  1: Fermi energy shift (Ry) =    -3.1915E-05     0.0000E+00

      iter #   4 total cpu time :   595.0 secs   av.it.:  10.2
      thresh= 9.545E-06 alpha_mix =  0.300 |ddv_scf|^2 =  7.965E-11

     Pert. #  1: Fermi energy shift (Ry) =    -3.2024E-05     0.0000E+00

      iter #   5 total cpu time :   641.4 secs   av.it.:   9.9
      thresh= 8.925E-07 alpha_mix =  0.300 |ddv_scf|^2 =  1.771E-11

     Pert. #  1: Fermi energy shift (Ry) =    -3.2171E-05     0.0000E+00

      iter #   6 total cpu time :   688.3 secs   av.it.:  10.1
      thresh= 4.208E-07 alpha_mix =  0.300 |ddv_scf|^2 =  1.130E-13

     Pert. #  1: Fermi energy shift (Ry) =    -3.2175E-05     0.0000E+00

      iter #   7 total cpu time :   732.6 secs   av.it.:   9.4
      thresh= 3.361E-08 alpha_mix =  0.300 |ddv_scf|^2 =  1.631E-14

     Pert. #  1: Fermi energy shift (Ry) =    -3.2186E-05     0.0000E+00

      iter #   8 total cpu time :   778.4 secs   av.it.:   9.8
      thresh= 1.277E-08 alpha_mix =  0.300 |ddv_scf|^2 =  1.685E-16

     End of self-consistent calculation

     Convergence has been achieved 


     Representation #   3 mode #   3

     Self-consistent Calculation

     Pert. #  1: Fermi energy shift (Ry) =    -4.4597E-07     0.0000E+00

      iter #   1 total cpu time :   823.5 secs   av.it.:   6.4
      thresh= 1.000E-02 alpha_mix =  0.300 |ddv_scf|^2 =  2.981E-06

     Pert. #  1: Fermi energy shift (Ry) =    -1.1509E-06     0.0000E+00

      iter #   2 total cpu time :   867.7 secs   av.it.:   9.2
      thresh= 1.727E-04 alpha_mix =  0.300 |ddv_scf|^2 =  6.749E-07

     Pert. #  1: Fermi energy shift (Ry) =    -1.2031E-06     0.0000E+00

      iter #   3 total cpu time :   913.3 secs   av.it.:   9.8
      thresh= 8.215E-05 alpha_mix =  0.300 |ddv_scf|^2 =  9.111E-09

     Pert. #  1: Fermi energy shift (Ry) =    -1.1482E-06     0.0000E+00

      iter #   4 total cpu time :   960.8 secs   av.it.:  10.2
      thresh= 9.545E-06 alpha_mix =  0.300 |ddv_scf|^2 =  7.964E-11

     Pert. #  1: Fermi energy shift (Ry) =    -1.1422E-06     0.0000E+00

      iter #   5 total cpu time :  1007.4 secs   av.it.:   9.9
      thresh= 8.924E-07 alpha_mix =  0.300 |ddv_scf|^2 =  1.770E-11

     Pert. #  1: Fermi energy shift (Ry) =    -1.1358E-06     0.0000E+00

      iter #   6 total cpu time :  1054.9 secs   av.it.:  10.1
      thresh= 4.208E-07 alpha_mix =  0.300 |ddv_scf|^2 =  1.129E-13

     Pert. #  1: Fermi energy shift (Ry) =    -1.1378E-06     0.0000E+00

      iter #   7 total cpu time :  1099.2 secs   av.it.:   9.3
      thresh= 3.361E-08 alpha_mix =  0.300 |ddv_scf|^2 =  1.631E-14

     Pert. #  1: Fermi energy shift (Ry) =    -1.1390E-06     0.0000E+00

      iter #   8 total cpu time :  1145.3 secs   av.it.:   9.8
      thresh= 1.277E-08 alpha_mix =  0.300 |ddv_scf|^2 =  1.664E-16

     End of self-consistent calculation

     Convergence has been achieved 


     Representation #   4 mode #   4

     Self-consistent Calculation

     Pert. #  1: Fermi energy shift (Ry) =     1.1530E-05    -6.7763E-21

      iter #   1 total cpu time :  1181.8 secs   av.it.:   4.1
      thresh= 1.000E-02 alpha_mix =  0.300 |ddv_scf|^2 =  4.222E-08

     Pert. #  1: Fermi energy shift (Ry) =     7.4584E-06     3.3087E-24

      iter #   2 total cpu time :  1226.6 secs   av.it.:   9.4
      thresh= 2.055E-05 alpha_mix =  0.300 |ddv_scf|^2 =  1.183E-08

     Pert. #  1: Fermi energy shift (Ry) =     6.1621E-06     3.3087E-24

      iter #   3 total cpu time :  1275.1 secs   av.it.:  10.5
      thresh= 1.088E-05 alpha_mix =  0.300 |ddv_scf|^2 =  2.033E-10

     Pert. #  1: Fermi energy shift (Ry) =     5.9368E-06    -4.1359E-25

      iter #   4 total cpu time :  1324.2 secs   av.it.:  10.6
      thresh= 1.426E-06 alpha_mix =  0.300 |ddv_scf|^2 =  9.294E-12

     Pert. #  1: Fermi energy shift (Ry) =     5.9994E-06     1.0340E-25

      iter #   5 total cpu time :  1369.7 secs   av.it.:   9.8
      thresh= 3.049E-07 alpha_mix =  0.300 |ddv_scf|^2 =  1.772E-12

     Pert. #  1: Fermi energy shift (Ry) =     6.0332E-06     1.0340E-25

      iter #   6 total cpu time :  1417.2 secs   av.it.:  10.3
      thresh= 1.331E-07 alpha_mix =  0.300 |ddv_scf|^2 =  1.032E-13

     Pert. #  1: Fermi energy shift (Ry) =     6.0251E-06     1.0340E-25

      iter #   7 total cpu time :  1465.6 secs   av.it.:  10.3
      thresh= 3.213E-08 alpha_mix =  0.300 |ddv_scf|^2 =  1.307E-15

     End of self-consistent calculation

     Convergence has been achieved 


     Representation #   5 mode #   5

     Self-consistent Calculation

     Pert. #  1: Fermi energy shift (Ry) =     3.9660E-05     0.0000E+00

      iter #   1 total cpu time :  1501.9 secs   av.it.:   4.1
      thresh= 1.000E-02 alpha_mix =  0.300 |ddv_scf|^2 =  4.222E-08

     Pert. #  1: Fermi energy shift (Ry) =     3.2160E-05     0.0000E+00

      iter #   2 total cpu time :  1546.7 secs   av.it.:   9.4
      thresh= 2.055E-05 alpha_mix =  0.300 |ddv_scf|^2 =  1.183E-08

     Pert. #  1: Fermi energy shift (Ry) =     2.6992E-05     0.0000E+00

      iter #   3 total cpu time :  1595.3 secs   av.it.:  10.5
      thresh= 1.088E-05 alpha_mix =  0.300 |ddv_scf|^2 =  2.033E-10

     Pert. #  1: Fermi energy shift (Ry) =     2.6691E-05     0.0000E+00

      iter #   4 total cpu time :  1644.4 secs   av.it.:  10.6
      thresh= 1.426E-06 alpha_mix =  0.300 |ddv_scf|^2 =  9.291E-12

     Pert. #  1: Fermi energy shift (Ry) =     2.6835E-05     0.0000E+00

      iter #   5 total cpu time :  1690.2 secs   av.it.:   9.8
      thresh= 3.048E-07 alpha_mix =  0.300 |ddv_scf|^2 =  1.776E-12

     Pert. #  1: Fermi energy shift (Ry) =     2.6910E-05     0.0000E+00

      iter #   6 total cpu time :  1737.8 secs   av.it.:  10.3
      thresh= 1.333E-07 alpha_mix =  0.300 |ddv_scf|^2 =  1.032E-13

     Pert. #  1: Fermi energy shift (Ry) =     2.6876E-05     0.0000E+00

      iter #   7 total cpu time :  1786.1 secs   av.it.:  10.3
      thresh= 3.213E-08 alpha_mix =  0.300 |ddv_scf|^2 =  1.308E-15

     End of self-consistent calculation

     Convergence has been achieved 


     Representation #   6 mode #   6

     Self-consistent Calculation

     Pert. #  1: Fermi energy shift (Ry) =    -1.7120E-06     0.0000E+00

      iter #   1 total cpu time :  1821.8 secs   av.it.:   4.0
      thresh= 1.000E-02 alpha_mix =  0.300 |ddv_scf|^2 =  4.147E-08

     Pert. #  1: Fermi energy shift (Ry) =    -3.9080E-06     0.0000E+00

      iter #   2 total cpu time :  1865.1 secs   av.it.:   9.0
      thresh= 2.037E-05 alpha_mix =  0.300 |ddv_scf|^2 =  1.166E-08

     Pert. #  1: Fermi energy shift (Ry) =    -4.6735E-06     0.0000E+00

      iter #   3 total cpu time :  1911.5 secs   av.it.:   9.8
      thresh= 1.080E-05 alpha_mix =  0.300 |ddv_scf|^2 =  1.572E-10

     Pert. #  1: Fermi energy shift (Ry) =    -4.5645E-06     0.0000E+00

      iter #   4 total cpu time :  1960.1 secs   av.it.:  10.4
      thresh= 1.254E-06 alpha_mix =  0.300 |ddv_scf|^2 =  2.368E-12

     Pert. #  1: Fermi energy shift (Ry) =    -4.5035E-06     0.0000E+00

      iter #   5 total cpu time :  2005.5 secs   av.it.:   9.6
      thresh= 1.539E-07 alpha_mix =  0.300 |ddv_scf|^2 =  6.447E-13

     Pert. #  1: Fermi energy shift (Ry) =    -4.4396E-06     0.0000E+00

      iter #   6 total cpu time :  2054.0 secs   av.it.:  10.4
      thresh= 8.030E-08 alpha_mix =  0.300 |ddv_scf|^2 =  1.370E-14

     Pert. #  1: Fermi energy shift (Ry) =    -4.4653E-06     0.0000E+00

      iter #   7 total cpu time :  2101.8 secs   av.it.:  10.3
      thresh= 1.170E-08 alpha_mix =  0.300 |ddv_scf|^2 =  4.979E-16

     End of self-consistent calculation

     Convergence has been achieved 


     Representation #   7 mode #   7

     Self-consistent Calculation

     Pert. #  1: Fermi energy shift (Ry) =     1.1201E-04    -6.7763E-21

      iter #   1 total cpu time :  2138.2 secs   av.it.:   4.1
      thresh= 1.000E-02 alpha_mix =  0.300 |ddv_scf|^2 =  4.222E-08

     Pert. #  1: Fermi energy shift (Ry) =     9.3932E-05     3.3087E-24

      iter #   2 total cpu time :  2183.0 secs   av.it.:   9.4
      thresh= 2.055E-05 alpha_mix =  0.300 |ddv_scf|^2 =  1.183E-08

     Pert. #  1: Fermi energy shift (Ry) =     7.3259E-05     3.3087E-24

      iter #   3 total cpu time :  2231.5 secs   av.it.:  10.4
      thresh= 1.088E-05 alpha_mix =  0.300 |ddv_scf|^2 =  2.033E-10

     Pert. #  1: Fermi energy shift (Ry) =     7.1227E-05    -4.1359E-25

      iter #   4 total cpu time :  2280.5 secs   av.it.:  10.6
      thresh= 1.426E-06 alpha_mix =  0.300 |ddv_scf|^2 =  9.293E-12

     Pert. #  1: Fermi energy shift (Ry) =     7.1679E-05     1.0340E-25

      iter #   5 total cpu time :  2326.5 secs   av.it.:   9.8
      thresh= 3.049E-07 alpha_mix =  0.300 |ddv_scf|^2 =  1.774E-12

     Pert. #  1: Fermi energy shift (Ry) =     7.1946E-05     1.0340E-25

      iter #   6 total cpu time :  2374.1 secs   av.it.:  10.3
      thresh= 1.332E-07 alpha_mix =  0.300 |ddv_scf|^2 =  1.032E-13

     Pert. #  1: Fermi energy shift (Ry) =     7.1916E-05     1.0340E-25

      iter #   7 total cpu time :  2422.1 secs   av.it.:  10.3
      thresh= 3.212E-08 alpha_mix =  0.300 |ddv_scf|^2 =  1.308E-15

     End of self-consistent calculation

     Convergence has been achieved 


     Representation #   8 mode #   8

     Self-consistent Calculation

     Pert. #  1: Fermi energy shift (Ry) =    -3.6180E-06     0.0000E+00

      iter #   1 total cpu time :  2457.7 secs   av.it.:   4.0
      thresh= 1.000E-02 alpha_mix =  0.300 |ddv_scf|^2 =  4.147E-08

     Pert. #  1: Fermi energy shift (Ry) =    -2.2749E-06     0.0000E+00

      iter #   2 total cpu time :  2500.8 secs   av.it.:   9.0
      thresh= 2.036E-05 alpha_mix =  0.300 |ddv_scf|^2 =  1.167E-08

     Pert. #  1: Fermi energy shift (Ry) =    -3.0132E-06     0.0000E+00

      iter #   3 total cpu time :  2546.9 secs   av.it.:   9.8
      thresh= 1.080E-05 alpha_mix =  0.300 |ddv_scf|^2 =  1.572E-10

     Pert. #  1: Fermi energy shift (Ry) =    -3.2033E-06     0.0000E+00

      iter #   4 total cpu time :  2595.8 secs   av.it.:  10.5
      thresh= 1.254E-06 alpha_mix =  0.300 |ddv_scf|^2 =  2.370E-12

     Pert. #  1: Fermi energy shift (Ry) =    -3.2145E-06     0.0000E+00

      iter #   5 total cpu time :  2641.5 secs   av.it.:   9.6
      thresh= 1.539E-07 alpha_mix =  0.300 |ddv_scf|^2 =  6.471E-13

     Pert. #  1: Fermi energy shift (Ry) =    -3.1784E-06     0.0000E+00

      iter #   6 total cpu time :  2690.4 secs   av.it.:  10.5
      thresh= 8.045E-08 alpha_mix =  0.300 |ddv_scf|^2 =  1.414E-14

     Pert. #  1: Fermi energy shift (Ry) =    -3.1462E-06     0.0000E+00

      iter #   7 total cpu time :  2738.8 secs   av.it.:  10.3
      thresh= 1.189E-08 alpha_mix =  0.300 |ddv_scf|^2 =  5.017E-16

     End of self-consistent calculation

     Convergence has been achieved 


     Representation #   9 mode #   9

     Self-consistent Calculation

     Pert. #  1: Fermi energy shift (Ry) =     6.9382E-05     0.0000E+00

      iter #   1 total cpu time :  2775.4 secs   av.it.:   4.1
      thresh= 1.000E-02 alpha_mix =  0.300 |ddv_scf|^2 =  4.222E-08

     Pert. #  1: Fermi energy shift (Ry) =     6.0555E-05     0.0000E+00

      iter #   2 total cpu time :  2820.5 secs   av.it.:   9.4
      thresh= 2.055E-05 alpha_mix =  0.300 |ddv_scf|^2 =  1.183E-08

     Pert. #  1: Fermi energy shift (Ry) =     5.0729E-05     0.0000E+00

      iter #   3 total cpu time :  2869.3 secs   av.it.:  10.4
      thresh= 1.088E-05 alpha_mix =  0.300 |ddv_scf|^2 =  2.033E-10

     Pert. #  1: Fermi energy shift (Ry) =     5.0163E-05     0.0000E+00

      iter #   4 total cpu time :  2918.6 secs   av.it.:  10.6
      thresh= 1.426E-06 alpha_mix =  0.300 |ddv_scf|^2 =  9.293E-12

     Pert. #  1: Fermi energy shift (Ry) =     5.0153E-05     0.0000E+00

      iter #   5 total cpu time :  2964.9 secs   av.it.:   9.8
      thresh= 3.048E-07 alpha_mix =  0.300 |ddv_scf|^2 =  1.773E-12

     Pert. #  1: Fermi energy shift (Ry) =     5.0147E-05     0.0000E+00

      iter #   6 total cpu time :  3012.7 secs   av.it.:  10.3
      thresh= 1.332E-07 alpha_mix =  0.300 |ddv_scf|^2 =  1.032E-13

     Pert. #  1: Fermi energy shift (Ry) =     5.0147E-05     0.0000E+00

      iter #   7 total cpu time :  3061.1 secs   av.it.:  10.3
      thresh= 3.213E-08 alpha_mix =  0.300 |ddv_scf|^2 =  1.307E-15

     End of self-consistent calculation

     Convergence has been achieved 


     Representation #  10 mode #  10

     Self-consistent Calculation

     Pert. #  1: Fermi energy shift (Ry) =    -4.0236E-06    -5.2940E-23

      iter #   1 total cpu time :  3096.8 secs   av.it.:   4.0
      thresh= 1.000E-02 alpha_mix =  0.300 |ddv_scf|^2 =  4.147E-08

     Pert. #  1: Fermi energy shift (Ry) =    -6.7960E-06     6.6174E-24

      iter #   2 total cpu time :  3139.9 secs   av.it.:   9.0
      thresh= 2.037E-05 alpha_mix =  0.300 |ddv_scf|^2 =  1.166E-08

     Pert. #  1: Fermi energy shift (Ry) =    -6.9952E-06    -8.2718E-25

      iter #   3 total cpu time :  3185.2 secs   av.it.:   9.8
      thresh= 1.080E-05 alpha_mix =  0.300 |ddv_scf|^2 =  1.572E-10

     Pert. #  1: Fermi energy shift (Ry) =    -7.2832E-06    -4.1359E-25

      iter #   4 total cpu time :  3233.0 secs   av.it.:  10.4
      thresh= 1.254E-06 alpha_mix =  0.300 |ddv_scf|^2 =  2.367E-12

     Pert. #  1: Fermi energy shift (Ry) =    -7.1892E-06     2.5849E-26

      iter #   5 total cpu time :  3278.1 secs   av.it.:   9.6
      thresh= 1.538E-07 alpha_mix =  0.300 |ddv_scf|^2 =  6.447E-13

     Pert. #  1: Fermi energy shift (Ry) =    -7.0503E-06     5.1699E-26

      iter #   6 total cpu time :  3326.4 secs   av.it.:  10.5
      thresh= 8.030E-08 alpha_mix =  0.300 |ddv_scf|^2 =  1.367E-14

     Pert. #  1: Fermi energy shift (Ry) =    -7.1115E-06     6.4623E-27

      iter #   7 total cpu time :  3374.6 secs   av.it.:  10.3
      thresh= 1.169E-08 alpha_mix =  0.300 |ddv_scf|^2 =  4.977E-16

     End of self-consistent calculation

     Convergence has been achieved 


     Representation #  11 mode #  11

     Self-consistent Calculation

     Pert. #  1: Fermi energy shift (Ry) =    -1.3601E-04     0.0000E+00

      iter #   1 total cpu time :  3411.0 secs   av.it.:   4.1
      thresh= 1.000E-02 alpha_mix =  0.300 |ddv_scf|^2 =  4.222E-08

     Pert. #  1: Fermi energy shift (Ry) =    -1.1739E-04     0.0000E+00

      iter #   2 total cpu time :  3455.7 secs   av.it.:   9.4
      thresh= 2.055E-05 alpha_mix =  0.300 |ddv_scf|^2 =  1.183E-08

     Pert. #  1: Fermi energy shift (Ry) =    -9.2437E-05     0.0000E+00

      iter #   3 total cpu time :  3504.2 secs   av.it.:  10.5
      thresh= 1.088E-05 alpha_mix =  0.300 |ddv_scf|^2 =  2.033E-10

     Pert. #  1: Fermi energy shift (Ry) =    -9.0214E-05     0.0000E+00

      iter #   4 total cpu time :  3553.2 secs   av.it.:  10.6
      thresh= 1.426E-06 alpha_mix =  0.300 |ddv_scf|^2 =  9.293E-12

     Pert. #  1: Fermi energy shift (Ry) =    -9.0487E-05     0.0000E+00

      iter #   5 total cpu time :  3599.1 secs   av.it.:   9.8
      thresh= 3.048E-07 alpha_mix =  0.300 |ddv_scf|^2 =  1.776E-12

     Pert. #  1: Fermi energy shift (Ry) =    -9.0667E-05     0.0000E+00

      iter #   6 total cpu time :  3646.6 secs   av.it.:  10.3
      thresh= 1.333E-07 alpha_mix =  0.300 |ddv_scf|^2 =  1.032E-13

     Pert. #  1: Fermi energy shift (Ry) =    -9.0678E-05     0.0000E+00

      iter #   7 total cpu time :  3694.7 secs   av.it.:  10.3
      thresh= 3.213E-08 alpha_mix =  0.300 |ddv_scf|^2 =  1.308E-15

     End of self-consistent calculation

     Convergence has been achieved 


     Representation #  12 mode #  12

     Self-consistent Calculation

     Pert. #  1: Fermi energy shift (Ry) =    -1.8582E-05     0.0000E+00

      iter #   1 total cpu time :  3731.1 secs   av.it.:   4.1
      thresh= 1.000E-02 alpha_mix =  0.300 |ddv_scf|^2 =  4.222E-08

     Pert. #  1: Fermi energy shift (Ry) =    -1.4210E-05     0.0000E+00

      iter #   2 total cpu time :  3775.8 secs   av.it.:   9.4
      thresh= 2.055E-05 alpha_mix =  0.300 |ddv_scf|^2 =  1.183E-08

     Pert. #  1: Fermi energy shift (Ry) =    -1.3450E-05     0.0000E+00

      iter #   3 total cpu time :  3824.3 secs   av.it.:  10.5
      thresh= 1.088E-05 alpha_mix =  0.300 |ddv_scf|^2 =  2.033E-10

     Pert. #  1: Fermi energy shift (Ry) =    -1.3394E-05     0.0000E+00

      iter #   4 total cpu time :  3873.6 secs   av.it.:  10.6
      thresh= 1.426E-06 alpha_mix =  0.300 |ddv_scf|^2 =  9.291E-12

     Pert. #  1: Fermi energy shift (Ry) =    -1.3354E-05     0.0000E+00

      iter #   5 total cpu time :  3919.7 secs   av.it.:   9.8
      thresh= 3.048E-07 alpha_mix =  0.300 |ddv_scf|^2 =  1.775E-12

     Pert. #  1: Fermi energy shift (Ry) =    -1.3321E-05     0.0000E+00

      iter #   6 total cpu time :  3967.2 secs   av.it.:  10.3
      thresh= 1.332E-07 alpha_mix =  0.300 |ddv_scf|^2 =  1.032E-13

     Pert. #  1: Fermi energy shift (Ry) =    -1.3312E-05     0.0000E+00

      iter #   7 total cpu time :  4015.4 secs   av.it.:  10.3
      thresh= 3.213E-08 alpha_mix =  0.300 |ddv_scf|^2 =  1.307E-15

     End of self-consistent calculation

     Convergence has been achieved 


     Representation #  13 mode #  13

     Self-consistent Calculation

     Pert. #  1: Fermi energy shift (Ry) =    -9.1837E-06    -6.7763E-21

      iter #   1 total cpu time :  4051.8 secs   av.it.:   4.1
      thresh= 1.000E-02 alpha_mix =  0.300 |ddv_scf|^2 =  4.222E-08

     Pert. #  1: Fermi energy shift (Ry) =    -4.2792E-06     3.3087E-24

      iter #   2 total cpu time :  4096.8 secs   av.it.:   9.4
      thresh= 2.055E-05 alpha_mix =  0.300 |ddv_scf|^2 =  1.183E-08

     Pert. #  1: Fermi energy shift (Ry) =    -1.8389E-06     3.3087E-24

      iter #   3 total cpu time :  4145.7 secs   av.it.:  10.5
      thresh= 1.088E-05 alpha_mix =  0.300 |ddv_scf|^2 =  2.033E-10

     Pert. #  1: Fermi energy shift (Ry) =    -1.8328E-06    -4.1359E-25

      iter #   4 total cpu time :  4195.4 secs   av.it.:  10.6
      thresh= 1.426E-06 alpha_mix =  0.300 |ddv_scf|^2 =  9.294E-12

     Pert. #  1: Fermi energy shift (Ry) =    -1.8778E-06     1.0340E-25

      iter #   5 total cpu time :  4242.0 secs   av.it.:   9.8
      thresh= 3.049E-07 alpha_mix =  0.300 |ddv_scf|^2 =  1.774E-12

     Pert. #  1: Fermi energy shift (Ry) =    -1.9141E-06     1.0340E-25

      iter #   6 total cpu time :  4289.9 secs   av.it.:  10.3
      thresh= 1.332E-07 alpha_mix =  0.300 |ddv_scf|^2 =  1.032E-13

     Pert. #  1: Fermi energy shift (Ry) =    -1.9204E-06     1.0340E-25

      iter #   7 total cpu time :  4338.1 secs   av.it.:  10.3
      thresh= 3.213E-08 alpha_mix =  0.300 |ddv_scf|^2 =  1.307E-15

     End of self-consistent calculation

     Convergence has been achieved 


     Representation #  14 mode #  14

     Self-consistent Calculation

     Pert. #  1: Fermi energy shift (Ry) =    -3.9748E-05     0.0000E+00

      iter #   1 total cpu time :  4374.4 secs   av.it.:   4.1
      thresh= 1.000E-02 alpha_mix =  0.300 |ddv_scf|^2 =  4.221E-08

     Pert. #  1: Fermi energy shift (Ry) =    -3.0924E-05     0.0000E+00

      iter #   2 total cpu time :  4419.6 secs   av.it.:   9.4
      thresh= 2.055E-05 alpha_mix =  0.300 |ddv_scf|^2 =  1.183E-08

     Pert. #  1: Fermi energy shift (Ry) =    -2.3714E-05     0.0000E+00

      iter #   3 total cpu time :  4469.0 secs   av.it.:  10.5
      thresh= 1.088E-05 alpha_mix =  0.300 |ddv_scf|^2 =  2.033E-10

     Pert. #  1: Fermi energy shift (Ry) =    -2.2592E-05     0.0000E+00

      iter #   4 total cpu time :  4519.1 secs   av.it.:  10.6
      thresh= 1.426E-06 alpha_mix =  0.300 |ddv_scf|^2 =  9.293E-12

     Pert. #  1: Fermi energy shift (Ry) =    -2.2750E-05     0.0000E+00

      iter #   5 total cpu time :  4566.8 secs   av.it.:   9.8
      thresh= 3.048E-07 alpha_mix =  0.300 |ddv_scf|^2 =  1.774E-12

     Pert. #  1: Fermi energy shift (Ry) =    -2.2840E-05     0.0000E+00

      iter #   6 total cpu time :  4614.7 secs   av.it.:  10.3
      thresh= 1.332E-07 alpha_mix =  0.300 |ddv_scf|^2 =  1.032E-13

     Pert. #  1: Fermi energy shift (Ry) =    -2.2837E-05     0.0000E+00

      iter #   7 total cpu time :  4664.1 secs   av.it.:  10.3
      thresh= 3.213E-08 alpha_mix =  0.300 |ddv_scf|^2 =  1.308E-15

     End of self-consistent calculation

     Convergence has been achieved 


     Representation #  15 mode #  15

     Self-consistent Calculation

     Pert. #  1: Fermi energy shift (Ry) =     2.1573E-06     0.0000E+00

      iter #   1 total cpu time :  4701.5 secs   av.it.:   4.0
      thresh= 1.000E-02 alpha_mix =  0.300 |ddv_scf|^2 =  4.147E-08

     Pert. #  1: Fermi energy shift (Ry) =     4.4015E-06     0.0000E+00

      iter #   2 total cpu time :  4751.7 secs   av.it.:   9.0
      thresh= 2.036E-05 alpha_mix =  0.300 |ddv_scf|^2 =  1.166E-08

     Pert. #  1: Fermi energy shift (Ry) =     4.9220E-06     0.0000E+00

      iter #   3 total cpu time :  4805.8 secs   av.it.:   9.8
      thresh= 1.080E-05 alpha_mix =  0.300 |ddv_scf|^2 =  1.572E-10

     Pert. #  1: Fermi energy shift (Ry) =     4.7923E-06     0.0000E+00

      iter #   4 total cpu time :  4862.9 secs   av.it.:  10.4
      thresh= 1.254E-06 alpha_mix =  0.300 |ddv_scf|^2 =  2.368E-12

     Pert. #  1: Fermi energy shift (Ry) =     4.7295E-06     0.0000E+00

      iter #   5 total cpu time :  4916.5 secs   av.it.:   9.6
      thresh= 1.539E-07 alpha_mix =  0.300 |ddv_scf|^2 =  6.455E-13

     Pert. #  1: Fermi energy shift (Ry) =     4.6685E-06     0.0000E+00

      iter #   6 total cpu time :  4973.6 secs   av.it.:  10.4
      thresh= 8.034E-08 alpha_mix =  0.300 |ddv_scf|^2 =  1.376E-14

     Pert. #  1: Fermi energy shift (Ry) =     4.6980E-06     0.0000E+00

      iter #   7 total cpu time :  5030.0 secs   av.it.:  10.3
      thresh= 1.173E-08 alpha_mix =  0.300 |ddv_scf|^2 =  4.988E-16

     End of self-consistent calculation

     Convergence has been achieved 


     Representation #  16 mode #  16

     Self-consistent Calculation

     Pert. #  1: Fermi energy shift (Ry) =    -1.3372E-04    -6.7763E-21

      iter #   1 total cpu time :  5073.2 secs   av.it.:   4.1
      thresh= 1.000E-02 alpha_mix =  0.300 |ddv_scf|^2 =  4.222E-08

     Pert. #  1: Fermi energy shift (Ry) =    -1.1338E-04     6.6174E-24

      iter #   2 total cpu time :  5129.2 secs   av.it.:   9.4
      thresh= 2.055E-05 alpha_mix =  0.300 |ddv_scf|^2 =  1.183E-08

     Pert. #  1: Fermi energy shift (Ry) =    -8.9276E-05     3.3087E-24

      iter #   3 total cpu time :  5187.7 secs   av.it.:  10.4
      thresh= 1.088E-05 alpha_mix =  0.300 |ddv_scf|^2 =  2.033E-10

     Pert. #  1: Fermi energy shift (Ry) =    -8.7482E-05    -4.1359E-25

      iter #   4 total cpu time :  5246.2 secs   av.it.:  10.6
      thresh= 1.426E-06 alpha_mix =  0.300 |ddv_scf|^2 =  9.297E-12

     Pert. #  1: Fermi energy shift (Ry) =    -8.7841E-05     1.0340E-25

      iter #   5 total cpu time :  5299.1 secs   av.it.:   9.8
      thresh= 3.049E-07 alpha_mix =  0.300 |ddv_scf|^2 =  1.770E-12

     Pert. #  1: Fermi energy shift (Ry) =    -8.8062E-05     1.0340E-25

      iter #   6 total cpu time :  5354.2 secs   av.it.:  10.3
      thresh= 1.331E-07 alpha_mix =  0.300 |ddv_scf|^2 =  1.032E-13

     Pert. #  1: Fermi energy shift (Ry) =    -8.8044E-05     1.0340E-25

      iter #   7 total cpu time :  5409.9 secs   av.it.:  10.3
      thresh= 3.213E-08 alpha_mix =  0.300 |ddv_scf|^2 =  1.307E-15

     End of self-consistent calculation

     Convergence has been achieved 


     Representation #  17 mode #  17

     Self-consistent Calculation

     Pert. #  1: Fermi energy shift (Ry) =     2.7396E-05     0.0000E+00

      iter #   1 total cpu time :  5447.6 secs   av.it.:   4.0
      thresh= 1.000E-02 alpha_mix =  0.300 |ddv_scf|^2 =  4.147E-08

     Pert. #  1: Fermi energy shift (Ry) =     2.3980E-05     0.0000E+00

      iter #   2 total cpu time :  5491.4 secs   av.it.:   9.0
      thresh= 2.036E-05 alpha_mix =  0.300 |ddv_scf|^2 =  1.167E-08

     Pert. #  1: Fermi energy shift (Ry) =     2.0232E-05     0.0000E+00

      iter #   3 total cpu time :  5537.9 secs   av.it.:   9.8
      thresh= 1.080E-05 alpha_mix =  0.300 |ddv_scf|^2 =  1.572E-10

     Pert. #  1: Fermi energy shift (Ry) =     1.8616E-05     0.0000E+00

      iter #   4 total cpu time :  5588.6 secs   av.it.:  10.5
      thresh= 1.254E-06 alpha_mix =  0.300 |ddv_scf|^2 =  2.370E-12

     Pert. #  1: Fermi energy shift (Ry) =     1.8733E-05     0.0000E+00

      iter #   5 total cpu time :  5636.2 secs   av.it.:   9.6
      thresh= 1.539E-07 alpha_mix =  0.300 |ddv_scf|^2 =  6.472E-13

     Pert. #  1: Fermi energy shift (Ry) =     1.9085E-05     0.0000E+00

      iter #   6 total cpu time :  5685.0 secs   av.it.:  10.5
      thresh= 8.045E-08 alpha_mix =  0.300 |ddv_scf|^2 =  1.416E-14

     Pert. #  1: Fermi energy shift (Ry) =     1.9026E-05     0.0000E+00

      iter #   7 total cpu time :  5733.4 secs   av.it.:  10.3
      thresh= 1.190E-08 alpha_mix =  0.300 |ddv_scf|^2 =  5.019E-16

     End of self-consistent calculation

     Convergence has been achieved 


     Representation #  18 mode #  18

     Self-consistent Calculation

     Pert. #  1: Fermi energy shift (Ry) =    -1.0829E-05     0.0000E+00

      iter #   1 total cpu time :  5770.5 secs   av.it.:   4.1
      thresh= 1.000E-02 alpha_mix =  0.300 |ddv_scf|^2 =  4.221E-08

     Pert. #  1: Fermi energy shift (Ry) =    -8.2859E-06     0.0000E+00

      iter #   2 total cpu time :  5817.0 secs   av.it.:   9.4
      thresh= 2.055E-05 alpha_mix =  0.300 |ddv_scf|^2 =  1.183E-08

     Pert. #  1: Fermi energy shift (Ry) =    -3.8331E-06     0.0000E+00

      iter #   3 total cpu time :  5867.7 secs   av.it.:  10.5
      thresh= 1.088E-05 alpha_mix =  0.300 |ddv_scf|^2 =  2.033E-10

     Pert. #  1: Fermi energy shift (Ry) =    -3.3511E-06     0.0000E+00

      iter #   4 total cpu time :  5918.8 secs   av.it.:  10.6
      thresh= 1.426E-06 alpha_mix =  0.300 |ddv_scf|^2 =  9.289E-12

     Pert. #  1: Fermi energy shift (Ry) =    -3.4983E-06     0.0000E+00

      iter #   5 total cpu time :  5965.4 secs   av.it.:   9.8
      thresh= 3.048E-07 alpha_mix =  0.300 |ddv_scf|^2 =  1.775E-12

     Pert. #  1: Fermi energy shift (Ry) =    -3.5930E-06     0.0000E+00

      iter #   6 total cpu time :  6016.9 secs   av.it.:  10.3
      thresh= 1.332E-07 alpha_mix =  0.300 |ddv_scf|^2 =  1.032E-13

     Pert. #  1: Fermi energy shift (Ry) =    -3.5942E-06     0.0000E+00

      iter #   7 total cpu time :  6064.7 secs   av.it.:  10.3
      thresh= 3.212E-08 alpha_mix =  0.300 |ddv_scf|^2 =  1.308E-15

     End of self-consistent calculation

     Convergence has been achieved 


     Representation #  19 mode #  19

     Self-consistent Calculation

     Pert. #  1: Fermi energy shift (Ry) =    -9.3466E-06    -5.2940E-23

      iter #   1 total cpu time :  6101.6 secs   av.it.:   4.0
      thresh= 1.000E-02 alpha_mix =  0.300 |ddv_scf|^2 =  4.147E-08

     Pert. #  1: Fermi energy shift (Ry) =    -5.1887E-06     6.6174E-24

      iter #   2 total cpu time :  6144.9 secs   av.it.:   9.0
      thresh= 2.037E-05 alpha_mix =  0.300 |ddv_scf|^2 =  1.166E-08

     Pert. #  1: Fermi energy shift (Ry) =    -3.7861E-06    -8.2718E-25

      iter #   3 total cpu time :  6191.8 secs   av.it.:   9.8
      thresh= 1.080E-05 alpha_mix =  0.300 |ddv_scf|^2 =  1.572E-10

     Pert. #  1: Fermi energy shift (Ry) =    -3.0704E-06    -4.1359E-25

      iter #   4 total cpu time :  6241.5 secs   av.it.:  10.4
      thresh= 1.254E-06 alpha_mix =  0.300 |ddv_scf|^2 =  2.366E-12

     Pert. #  1: Fermi energy shift (Ry) =    -3.1731E-06     1.2925E-26

      iter #   5 total cpu time :  6290.1 secs   av.it.:   9.6
      thresh= 1.538E-07 alpha_mix =  0.300 |ddv_scf|^2 =  6.446E-13

     Pert. #  1: Fermi energy shift (Ry) =    -3.3785E-06     2.5849E-26

      iter #   6 total cpu time :  6342.8 secs   av.it.:  10.5
      thresh= 8.028E-08 alpha_mix =  0.300 |ddv_scf|^2 =  1.365E-14

     Pert. #  1: Fermi energy shift (Ry) =    -3.3153E-06    -1.6156E-27

      iter #   7 total cpu time :  6392.7 secs   av.it.:  10.3
      thresh= 1.168E-08 alpha_mix =  0.300 |ddv_scf|^2 =  4.978E-16

     End of self-consistent calculation

     Convergence has been achieved 


     Representation #  20 mode #  20

     Self-consistent Calculation

     Pert. #  1: Fermi energy shift (Ry) =     1.4381E-04     0.0000E+00

      iter #   1 total cpu time :  6433.0 secs   av.it.:   4.1
      thresh= 1.000E-02 alpha_mix =  0.300 |ddv_scf|^2 =  4.222E-08

     Pert. #  1: Fermi energy shift (Ry) =     1.2786E-04     0.0000E+00

      iter #   2 total cpu time :  6482.2 secs   av.it.:   9.4
      thresh= 2.055E-05 alpha_mix =  0.300 |ddv_scf|^2 =  1.183E-08

     Pert. #  1: Fermi energy shift (Ry) =     1.0405E-04     0.0000E+00

      iter #   3 total cpu time :  6532.4 secs   av.it.:  10.5
      thresh= 1.088E-05 alpha_mix =  0.300 |ddv_scf|^2 =  2.033E-10

     Pert. #  1: Fermi energy shift (Ry) =     1.0258E-04     0.0000E+00

      iter #   4 total cpu time :  6582.8 secs   av.it.:  10.6
      thresh= 1.426E-06 alpha_mix =  0.300 |ddv_scf|^2 =  9.293E-12

     Pert. #  1: Fermi energy shift (Ry) =     1.0282E-04     0.0000E+00

      iter #   5 total cpu time :  6632.7 secs   av.it.:   9.8
      thresh= 3.048E-07 alpha_mix =  0.300 |ddv_scf|^2 =  1.775E-12

     Pert. #  1: Fermi energy shift (Ry) =     1.0297E-04     0.0000E+00

      iter #   6 total cpu time :  6681.8 secs   av.it.:  10.3
      thresh= 1.332E-07 alpha_mix =  0.300 |ddv_scf|^2 =  1.032E-13

     Pert. #  1: Fermi energy shift (Ry) =     1.0294E-04     0.0000E+00

      iter #   7 total cpu time :  6732.8 secs   av.it.:  10.3
      thresh= 3.213E-08 alpha_mix =  0.300 |ddv_scf|^2 =  1.308E-15

     End of self-consistent calculation

     Convergence has been achieved 


     Representation #  21 mode #  21

     Self-consistent Calculation

     Pert. #  1: Fermi energy shift (Ry) =    -3.9838E-05     0.0000E+00

      iter #   1 total cpu time :  6769.4 secs   av.it.:   4.1
      thresh= 1.000E-02 alpha_mix =  0.300 |ddv_scf|^2 =  4.222E-08

     Pert. #  1: Fermi energy shift (Ry) =    -3.7661E-05     0.0000E+00

      iter #   2 total cpu time :  6814.6 secs   av.it.:   9.4
      thresh= 2.055E-05 alpha_mix =  0.300 |ddv_scf|^2 =  1.183E-08

     Pert. #  1: Fermi energy shift (Ry) =    -3.2564E-05     0.0000E+00

      iter #   3 total cpu time :  6864.4 secs   av.it.:  10.5
      thresh= 1.088E-05 alpha_mix =  0.300 |ddv_scf|^2 =  2.033E-10

     Pert. #  1: Fermi energy shift (Ry) =    -3.2522E-05     0.0000E+00

      iter #   4 total cpu time :  6915.0 secs   av.it.:  10.6
      thresh= 1.426E-06 alpha_mix =  0.300 |ddv_scf|^2 =  9.291E-12

     Pert. #  1: Fermi energy shift (Ry) =    -3.2394E-05     0.0000E+00

      iter #   5 total cpu time :  6966.7 secs   av.it.:   9.8
      thresh= 3.048E-07 alpha_mix =  0.300 |ddv_scf|^2 =  1.774E-12

     Pert. #  1: Fermi energy shift (Ry) =    -3.2324E-05     0.0000E+00

      iter #   6 total cpu time :  7019.2 secs   av.it.:  10.3
      thresh= 1.332E-07 alpha_mix =  0.300 |ddv_scf|^2 =  1.032E-13

     Pert. #  1: Fermi energy shift (Ry) =    -3.2337E-05     0.0000E+00

      iter #   7 total cpu time :  7072.0 secs   av.it.:  10.3
      thresh= 3.212E-08 alpha_mix =  0.300 |ddv_scf|^2 =  1.307E-15

     End of self-consistent calculation

     Convergence has been achieved 

     Number of q in the star =    1
     List of q in the star:
          1   0.000000000   0.000000000   0.000000000

     Diagonalizing the dynamical matrix

     q = (    0.000000000   0.000000000   0.000000000 ) 

 **************************************************************************
     freq (    1) =       0.284503 [THz] =       9.489994 [cm-1]
     freq (    2) =       0.285437 [THz] =       9.521169 [cm-1]
     freq (    3) =       0.286372 [THz] =       9.552337 [cm-1]
     freq (    4) =      26.462712 [THz] =     882.701051 [cm-1]
     freq (    5) =      26.466097 [THz] =     882.813956 [cm-1]
     freq (    6) =      26.471198 [THz] =     882.984111 [cm-1]
     freq (    7) =      39.347964 [THz] =    1312.506800 [cm-1]
     freq (    8) =      39.352467 [THz] =    1312.657015 [cm-1]
     freq (    9) =      39.353668 [THz] =    1312.697064 [cm-1]
     freq (   10) =      41.350689 [THz] =    1379.310506 [cm-1]
     freq (   11) =      42.240841 [THz] =    1409.002798 [cm-1]
     freq (   12) =      42.242805 [THz] =    1409.068319 [cm-1]
     freq (   13) =      43.411390 [THz] =    1448.048105 [cm-1]
     freq (   14) =      43.417589 [THz] =    1448.254874 [cm-1]
     freq (   15) =      43.423107 [THz] =    1448.438930 [cm-1]
     freq (   16) =      44.164225 [THz] =    1473.159960 [cm-1]
     freq (   17) =      44.165886 [THz] =    1473.215368 [cm-1]
     freq (   18) =      44.169366 [THz] =    1473.331458 [cm-1]
     freq (   19) =      44.570298 [THz] =    1486.705102 [cm-1]
     freq (   20) =      44.576094 [THz] =    1486.898438 [cm-1]
     freq (   21) =      44.579532 [THz] =    1487.013131 [cm-1]
 **************************************************************************

     Mode symmetry, C_1 (1)     point group:

     freq (   1-   1) =          9.5  [cm-1]   --> A               I+R
     freq (   2-   2) =          9.5  [cm-1]   --> A               I+R
     freq (   3-   3) =          9.6  [cm-1]   --> A               I+R
     freq (   4-   4) =        882.7  [cm-1]   --> A               I+R
     freq (   5-   5) =        882.8  [cm-1]   --> A               I+R
     freq (   6-   6) =        883.0  [cm-1]   --> A               I+R
     freq (   7-   7) =       1312.5  [cm-1]   --> A               I+R
     freq (   8-   8) =       1312.7  [cm-1]   --> A               I+R
     freq (   9-   9) =       1312.7  [cm-1]   --> A               I+R
     freq (  10-  10) =       1379.3  [cm-1]   --> A               I+R
     freq (  11-  11) =       1409.0  [cm-1]   --> A               I+R
     freq (  12-  12) =       1409.1  [cm-1]   --> A               I+R
     freq (  13-  13) =       1448.0  [cm-1]   --> A               I+R
     freq (  14-  14) =       1448.3  [cm-1]   --> A               I+R
     freq (  15-  15) =       1448.4  [cm-1]   --> A               I+R
     freq (  16-  16) =       1473.2  [cm-1]   --> A               I+R
     freq (  17-  17) =       1473.2  [cm-1]   --> A               I+R
     freq (  18-  18) =       1473.3  [cm-1]   --> A               I+R
     freq (  19-  19) =       1486.7  [cm-1]   --> A               I+R
     freq (  20-  20) =       1486.9  [cm-1]   --> A               I+R
     freq (  21-  21) =       1487.0  [cm-1]   --> A               I+R

     Gaussian Broadening:   0.005 Ry, ngauss=   0
     DOS =  5.844199 states/spin/Ry/Unit Cell at Ef= 19.630679 eV
     double delta at Ef =937.966505
     lambda(    1)=  0.0000   gamma=    0.00 GHz
     lambda(    2)=  0.0000   gamma=    0.00 GHz
     lambda(    3)=  0.0000   gamma=    0.00 GHz
     lambda(    4)=  0.0000   gamma=    0.05 GHz
     lambda(    5)=  0.0000   gamma=    0.05 GHz
     lambda(    6)=  0.0000   gamma=    0.05 GHz
     lambda(    7)=  0.5978   gamma= 5165.22 GHz
     lambda(    8)=  0.5973   gamma= 5162.11 GHz
     lambda(    9)=  0.5981   gamma= 5169.25 GHz
     lambda(   10)=  0.0258   gamma=  246.47 GHz
     lambda(   11)=  6.1041   gamma=60783.22 GHz
     lambda(   12)=  6.1327   gamma=61074.58 GHz
     lambda(   13)=  0.0003   gamma=    2.91 GHz
     lambda(   14)=  0.0003   gamma=    3.24 GHz
     lambda(   15)=  0.0003   gamma=    2.67 GHz
     lambda(   16)=  0.0039   gamma=   42.19 GHz
     lambda(   17)=  0.0038   gamma=   41.43 GHz
     lambda(   18)=  0.0037   gamma=   40.44 GHz
     lambda(   19)=  0.6628   gamma= 7347.57 GHz
     lambda(   20)=  0.6593   gamma= 7311.65 GHz
     lambda(   21)=  0.6612   gamma= 7332.95 GHz

     Gaussian Broadening:   0.010 Ry, ngauss=   0
     DOS =  4.204756 states/spin/Ry/Unit Cell at Ef= 19.638115 eV
     double delta at Ef =392.104834
     lambda(    1)=  0.0000   gamma=    0.00 GHz
     lambda(    2)=  0.0000   gamma=    0.00 GHz
     lambda(    3)=  0.0000   gamma=    0.00 GHz
     lambda(    4)=  0.0004   gamma=    0.99 GHz
     lambda(    5)=  0.0003   gamma=    0.97 GHz
     lambda(    6)=  0.0003   gamma=    0.95 GHz
     lambda(    7)=  0.3986   gamma= 2478.06 GHz
     lambda(    8)=  0.3988   gamma= 2479.54 GHz
     lambda(    9)=  0.3988   gamma= 2480.07 GHz
     lambda(   10)=  0.0146   gamma=  100.21 GHz
     lambda(   11)=  2.9294   gamma=20987.27 GHz
     lambda(   12)=  2.9290   gamma=20986.52 GHz
     lambda(   13)=  0.0095   gamma=   72.14 GHz
     lambda(   14)=  0.0095   gamma=   71.97 GHz
     lambda(   15)=  0.0095   gamma=   71.61 GHz
     lambda(   16)=  0.1115   gamma=  873.61 GHz
     lambda(   17)=  0.1112   gamma=  871.34 GHz
     lambda(   18)=  0.1106   gamma=  866.66 GHz
     lambda(   19)=  0.6788   gamma= 5414.30 GHz
     lambda(   20)=  0.6785   gamma= 5413.00 GHz
     lambda(   21)=  0.6777   gamma= 5408.00 GHz

     Gaussian Broadening:   0.015 Ry, ngauss=   0
     DOS =  4.569158 states/spin/Ry/Unit Cell at Ef= 19.633646 eV
     double delta at Ef =286.903925
     lambda(    1)=  0.0000   gamma=    0.00 GHz
     lambda(    2)=  0.0000   gamma=    0.00 GHz
     lambda(    3)=  0.0000   gamma=    0.00 GHz
     lambda(    4)=  0.0007   gamma=    2.13 GHz
     lambda(    5)=  0.0007   gamma=    2.12 GHz
     lambda(    6)=  0.0007   gamma=    2.14 GHz
     lambda(    7)=  0.2400   gamma= 1620.98 GHz
     lambda(    8)=  0.2399   gamma= 1621.30 GHz
     lambda(    9)=  0.2400   gamma= 1621.77 GHz
     lambda(   10)=  0.0084   gamma=   62.65 GHz
     lambda(   11)=  1.5397   gamma=11987.21 GHz
     lambda(   12)=  1.5397   gamma=11988.30 GHz
     lambda(   13)=  0.0164   gamma=  134.76 GHz
     lambda(   14)=  0.0164   gamma=  134.76 GHz
     lambda(   15)=  0.0164   gamma=  134.75 GHz
     lambda(   16)=  0.0957   gamma=  814.75 GHz
     lambda(   17)=  0.0956   gamma=  813.81 GHz
     lambda(   18)=  0.0954   gamma=  811.72 GHz
     lambda(   19)=  0.6544   gamma= 5672.47 GHz
     lambda(   20)=  0.6540   gamma= 5670.14 GHz
     lambda(   21)=  0.6534   gamma= 5665.81 GHz

     Gaussian Broadening:   0.020 Ry, ngauss=   0
     DOS =  4.604612 states/spin/Ry/Unit Cell at Ef= 19.617163 eV
     double delta at Ef =215.749378
     lambda(    1)=  0.0000   gamma=    0.01 GHz
     lambda(    2)=  0.0000   gamma=    0.01 GHz
     lambda(    3)=  0.0000   gamma=    0.01 GHz
     lambda(    4)=  0.0031   gamma=    9.52 GHz
     lambda(    5)=  0.0031   gamma=    9.54 GHz
     lambda(    6)=  0.0031   gamma=    9.64 GHz
     lambda(    7)=  0.1664   gamma= 1132.72 GHz
     lambda(    8)=  0.1663   gamma= 1132.50 GHz
     lambda(    9)=  0.1664   gamma= 1132.87 GHz
     lambda(   10)=  0.0059   gamma=   44.69 GHz
     lambda(   11)=  1.0840   gamma= 8504.64 GHz
     lambda(   12)=  1.0838   gamma= 8504.11 GHz
     lambda(   13)=  0.0164   gamma=  136.06 GHz
     lambda(   14)=  0.0164   gamma=  136.08 GHz
     lambda(   15)=  0.0164   gamma=  136.11 GHz
     lambda(   16)=  0.0689   gamma=  591.02 GHz
     lambda(   17)=  0.0689   gamma=  590.60 GHz
     lambda(   18)=  0.0687   gamma=  589.60 GHz
     lambda(   19)=  0.5487   gamma= 4792.89 GHz
     lambda(   20)=  0.5484   gamma= 4791.41 GHz
     lambda(   21)=  0.5481   gamma= 4789.40 GHz

     Gaussian Broadening:   0.025 Ry, ngauss=   0
     DOS =  4.739981 states/spin/Ry/Unit Cell at Ef= 19.600449 eV
     double delta at Ef =174.529700
     lambda(    1)=  0.0000   gamma=    0.02 GHz
     lambda(    2)=  0.0000   gamma=    0.02 GHz
     lambda(    3)=  0.0000   gamma=    0.02 GHz
     lambda(    4)=  0.0061   gamma=   19.28 GHz
     lambda(    5)=  0.0061   gamma=   19.30 GHz
     lambda(    6)=  0.0061   gamma=   19.46 GHz
     lambda(    7)=  0.1246   gamma=  873.32 GHz
     lambda(    8)=  0.1245   gamma=  872.94 GHz
     lambda(    9)=  0.1246   gamma=  873.24 GHz
     lambda(   10)=  0.0046   gamma=   35.48 GHz
     lambda(   11)=  0.8659   gamma= 6993.19 GHz
     lambda(   12)=  0.8655   gamma= 6991.07 GHz
     lambda(   13)=  0.0141   gamma=  120.49 GHz
     lambda(   14)=  0.0141   gamma=  120.51 GHz
     lambda(   15)=  0.0141   gamma=  120.53 GHz
     lambda(   16)=  0.0508   gamma=  448.22 GHz
     lambda(   17)=  0.0507   gamma=  447.99 GHz
     lambda(   18)=  0.0507   gamma=  447.42 GHz
     lambda(   19)=  0.4602   gamma= 4137.64 GHz
     lambda(   20)=  0.4600   gamma= 4136.97 GHz
     lambda(   21)=  0.4598   gamma= 4136.11 GHz

     Gaussian Broadening:   0.030 Ry, ngauss=   0
     DOS =  4.877797 states/spin/Ry/Unit Cell at Ef= 19.588780 eV
     double delta at Ef =149.598260
     lambda(    1)=  0.0000   gamma=    0.02 GHz
     lambda(    2)=  0.0000   gamma=    0.02 GHz
     lambda(    3)=  0.0000   gamma=    0.02 GHz
     lambda(    4)=  0.0083   gamma=   26.96 GHz
     lambda(    5)=  0.0083   gamma=   26.99 GHz
     lambda(    6)=  0.0083   gamma=   27.15 GHz
     lambda(    7)=  0.1008   gamma=  727.13 GHz
     lambda(    8)=  0.1007   gamma=  726.72 GHz
     lambda(    9)=  0.1008   gamma=  726.98 GHz
     lambda(   10)=  0.0038   gamma=   30.43 GHz
     lambda(   11)=  0.7329   gamma= 6091.42 GHz
     lambda(   12)=  0.7326   gamma= 6089.30 GHz
     lambda(   13)=  0.0123   gamma=  107.77 GHz
     lambda(   14)=  0.0123   gamma=  107.79 GHz
     lambda(   15)=  0.0123   gamma=  107.80 GHz
     lambda(   16)=  0.0397   gamma=  361.05 GHz
     lambda(   17)=  0.0397   gamma=  360.89 GHz
     lambda(   18)=  0.0397   gamma=  360.51 GHz
     lambda(   19)=  0.4000   gamma= 3701.61 GHz
     lambda(   20)=  0.3999   gamma= 3701.30 GHz
     lambda(   21)=  0.3998   gamma= 3701.03 GHz

     Gaussian Broadening:   0.035 Ry, ngauss=   0
     DOS =  4.915222 states/spin/Ry/Unit Cell at Ef= 19.581859 eV
     double delta at Ef =132.023219
     lambda(    1)=  0.0000   gamma=    0.04 GHz
     lambda(    2)=  0.0000   gamma=    0.04 GHz
     lambda(    3)=  0.0000   gamma=    0.04 GHz
     lambda(    4)=  0.0102   gamma=   33.64 GHz
     lambda(    5)=  0.0102   gamma=   33.66 GHz
     lambda(    6)=  0.0103   gamma=   33.82 GHz
     lambda(    7)=  0.0871   gamma=  632.87 GHz
     lambda(    8)=  0.0870   gamma=  632.47 GHz
     lambda(    9)=  0.0870   gamma=  632.71 GHz
     lambda(   10)=  0.0034   gamma=   27.02 GHz
     lambda(   11)=  0.6423   gamma= 5379.55 GHz
     lambda(   12)=  0.6421   gamma= 5377.87 GHz
     lambda(   13)=  0.0113   gamma=  100.35 GHz
     lambda(   14)=  0.0113   gamma=  100.39 GHz
     lambda(   15)=  0.0113   gamma=  100.39 GHz
     lambda(   16)=  0.0332   gamma=  303.51 GHz
     lambda(   17)=  0.0331   gamma=  303.39 GHz
     lambda(   18)=  0.0331   gamma=  303.11 GHz
     lambda(   19)=  0.3586   gamma= 3343.21 GHz
     lambda(   20)=  0.3584   gamma= 3343.01 GHz
     lambda(   21)=  0.3584   gamma= 3343.04 GHz

     Gaussian Broadening:   0.040 Ry, ngauss=   0
     DOS =  4.881243 states/spin/Ry/Unit Cell at Ef= 19.578156 eV
     double delta at Ef =118.517276
     lambda(    1)=  0.0000   gamma=    0.07 GHz
     lambda(    2)=  0.0000   gamma=    0.07 GHz
     lambda(    3)=  0.0000   gamma=    0.07 GHz
     lambda(    4)=  0.0125   gamma=   40.95 GHz
     lambda(    5)=  0.0126   gamma=   40.98 GHz
     lambda(    6)=  0.0126   gamma=   41.14 GHz
     lambda(    7)=  0.0785   gamma=  566.74 GHz
     lambda(    8)=  0.0785   gamma=  566.37 GHz
     lambda(    9)=  0.0785   gamma=  566.58 GHz
     lambda(   10)=  0.0031   gamma=   24.33 GHz
     lambda(   11)=  0.5743   gamma= 4776.11 GHz
     lambda(   12)=  0.5740   gamma= 4774.82 GHz
     lambda(   13)=  0.0112   gamma=   97.97 GHz
     lambda(   14)=  0.0112   gamma=   98.01 GHz
     lambda(   15)=  0.0112   gamma=   98.02 GHz
     lambda(   16)=  0.0291   gamma=  264.44 GHz
     lambda(   17)=  0.0291   gamma=  264.35 GHz
     lambda(   18)=  0.0290   gamma=  264.12 GHz
     lambda(   19)=  0.3263   gamma= 3021.71 GHz
     lambda(   20)=  0.3262   gamma= 3021.53 GHz
     lambda(   21)=  0.3262   gamma= 3021.70 GHz

     Gaussian Broadening:   0.045 Ry, ngauss=   0
     DOS =  4.824368 states/spin/Ry/Unit Cell at Ef= 19.576371 eV
     double delta at Ef =107.855723
     lambda(    1)=  0.0000   gamma=    0.11 GHz
     lambda(    2)=  0.0000   gamma=    0.11 GHz
     lambda(    3)=  0.0000   gamma=    0.11 GHz
     lambda(    4)=  0.0153   gamma=   49.33 GHz
     lambda(    5)=  0.0153   gamma=   49.37 GHz
     lambda(    6)=  0.0153   gamma=   49.52 GHz
     lambda(    7)=  0.0727   gamma=  518.32 GHz
     lambda(    8)=  0.0726   gamma=  517.98 GHz
     lambda(    9)=  0.0726   gamma=  518.17 GHz
     lambda(   10)=  0.0028   gamma=   22.12 GHz
     lambda(   11)=  0.5187   gamma= 4264.03 GHz
     lambda(   12)=  0.5186   gamma= 4263.04 GHz
     lambda(   13)=  0.0114   gamma=   99.37 GHz
     lambda(   14)=  0.0114   gamma=   99.43 GHz
     lambda(   15)=  0.0114   gamma=   99.44 GHz
     lambda(   16)=  0.0265   gamma=  237.84 GHz
     lambda(   17)=  0.0265   gamma=  237.76 GHz
     lambda(   18)=  0.0264   gamma=  237.57 GHz
     lambda(   19)=  0.2992   gamma= 2737.95 GHz
     lambda(   20)=  0.2991   gamma= 2737.76 GHz
     lambda(   21)=  0.2991   gamma= 2737.99 GHz

     Gaussian Broadening:   0.050 Ry, ngauss=   0
     DOS =  4.769063 states/spin/Ry/Unit Cell at Ef= 19.575659 eV
     double delta at Ef = 99.337060
     lambda(    1)=  0.0000   gamma=    0.16 GHz
     lambda(    2)=  0.0000   gamma=    0.16 GHz
     lambda(    3)=  0.0000   gamma=    0.16 GHz
     lambda(    4)=  0.0183   gamma=   58.38 GHz
     lambda(    5)=  0.0183   gamma=   58.41 GHz
     lambda(    6)=  0.0184   gamma=   58.56 GHz
     lambda(    7)=  0.0683   gamma=  481.62 GHz
     lambda(    8)=  0.0682   gamma=  481.31 GHz
     lambda(    9)=  0.0683   gamma=  481.49 GHz
     lambda(   10)=  0.0026   gamma=   20.33 GHz
     lambda(   11)=  0.4716   gamma= 3832.29 GHz
     lambda(   12)=  0.4715   gamma= 3831.52 GHz
     lambda(   13)=  0.0120   gamma=  103.13 GHz
     lambda(   14)=  0.0120   gamma=  103.20 GHz
     lambda(   15)=  0.0120   gamma=  103.22 GHz
     lambda(   16)=  0.0247   gamma=  219.58 GHz
     lambda(   17)=  0.0247   gamma=  219.51 GHz
     lambda(   18)=  0.0247   gamma=  219.34 GHz
     lambda(   19)=  0.2758   gamma= 2494.73 GHz
     lambda(   20)=  0.2757   gamma= 2494.54 GHz
     lambda(   21)=  0.2756   gamma= 2494.78 GHz

     Calculation of q =    0.0048245   0.4444414  -0.4212803

     Subspace diagonalization in iterative solution of the eigenvalue problem:
     one sub-group per band group will be used
     scalapack distributed-memory algorithm (size of sub-group:  2*  2 procs)


     Parallelization info
     --------------------
     sticks:   dense  smooth     PW     G-vecs:    dense   smooth      PW
     Min         294     116     44                 8399     2109     501
     Max         295     117     45                 8401     2111     503
     Sum        2061     817    311                58799    14771    3511


     Title: 
     YH6 electron-phonon 2x2x2 q (RTSC sodalite — Im-3m, Troyan 2021 measured 


     bravais-lattice index     =            0
     lattice parameter (alat)  =       5.8509  a.u.
     unit-cell volume          =     154.1693 (a.u.)^3
     number of atoms/cell      =            7
     number of atomic types    =            2
     number of electrons       =        17.00
     number of Kohn-Sham states=           13
     kinetic-energy cutoff     =      80.0000  Ry
     charge density cutoff     =     800.0000  Ry
     Exchange-correlation= PBE
                           (   1   4   3   4   0   0   0)

     celldm(1)=   5.850924  celldm(2)=   0.000000  celldm(3)=   0.000000
     celldm(4)=   0.000000  celldm(5)=   0.000000  celldm(6)=   0.000000

     crystal axes: (cart. coord. in units of alat)
               a(1) = (   0.600583   0.546610   0.583539 )  
               a(2) = (  -0.553567   0.576004   0.601332 )  
               a(3) = (  -0.583549  -0.577839   0.570568 )  

     reciprocal axes: (cart. coord. in units 2 pi/alat)
               b(1) = (  0.878418 -0.045549  0.852273 )  
               b(2) = ( -0.843271  0.887609  0.036464 )  
               b(3) = ( -0.009649 -0.888883  0.842561 )  


     PseudoPot. # 1 for Y  read from file:
     ./pseudo/Y.pbe-spn-rrkjus_psl.1.0.0.UPF
     MD5 check sum: 5fe32e6a006803c2ec2edff47948a3c8
     Pseudo is Ultrasoft + core correction, Zval = 11.0
     Generated using &quot;atomic&quot; code by A. Dal Corso  v.6.2.2
     Using radial grid of 1223 points,  6 beta functions with: 
                l(1) =   0
                l(2) =   0
                l(3) =   1
                l(4) =   1
                l(5) =   2
                l(6) =   2
     Q(r) pseudized with 0 coefficients 


     PseudoPot. # 2 for H  read from file:
     ./pseudo/H.pbe-rrkjus_psl.1.0.0.UPF
     MD5 check sum: 3f4114867bd07edc7f1424d066fc1888
     Pseudo is Ultrasoft, Zval =  1.0
     Generated using &quot;atomic&quot; code by A. Dal Corso  v.6.3MaX
     Using radial grid of  929 points,  2 beta functions with: 
                l(1) =   0
                l(2) =   0
     Q(r) pseudized with 0 coefficients 


     atomic species   valence    mass     pseudopotential
        Y             11.00    88.90590     Y ( 1.00)
        H              1.00     1.00800     H ( 1.00)

     No symmetry found



   Cartesian axes

     site n.     atom                  positions (alat units)
         1           Y   tau(   1) = (  -0.0269113  -0.0455743  -0.0603317  )
         2           H   tau(   2) = (  -0.0076430   0.5235507   0.2435645  )
         3           H   tau(   3) = (  -0.0108784   0.2272024   0.5243766  )
         4           H   tau(   4) = (  -0.3069144  -0.0538022   0.5211933  )
         5           H   tau(   5) = (   0.0008486   0.5079443   0.8206392  )
         6           H   tau(   6) = (  -0.0258809  -0.3497438   0.5090166  )
         7           H   tau(   7) = (  -0.8839651  -0.0391610   0.5300967  )

     number of k points=  4104  Methfessel-Paxton smearing, width (Ry)=  0.0100

     Number of k-points >= 100: set verbosity='high' to print them.

     Dense  grid:    58799 G-vectors     FFT dimensions: (  54,  54,  54)

     Smooth grid:    14771 G-vectors     FFT dimensions: (  36,  36,  36)

     Estimated max dynamical RAM per process >      32.50 MB

     Estimated total dynamical RAM >     227.47 MB

     The potential is recalculated from file :
     ./out/_ph0/yh6.q_2/yh6.save/charge-density

     Starting wfcs are   19 atomic wfcs

     Band Structure Calculation
     Davidson diagonalization with overlap

     ethr =  5.88E-11,  avg # of iterations = 16.1

     total cpu time spent up to now is      262.4 secs

     End of band structure calculation

     Number of k-points >= 100: set verbosity='high' to print the bands.

     the Fermi energy is    19.6381 ev

     Writing output data file ./out/_ph0/yh6.q_2/yh6.save/
WARNING(FoX)
emitting non-ASCII character. Platform-dependent result!
WARNING(FoX)
emitting non-ASCII character. Platform-dependent result!
WARNING(FoX)
emitting non-ASCII character. Platform-dependent result!

Possibly too few bands at point    1   0.00000   0.00000   0.00000

Possibly too few bands at point    3  -0.00060  -0.05556   0.05266

Possibly too few bands at point   16   0.00060   0.05556  -0.05266

Possibly too few bands at point   18   0.00965   0.88888  -0.84256

Possibly too few bands at point   19  -0.05270   0.05548   0.00228

Possibly too few bands at point   21  -0.05331  -0.00008   0.05494

Possibly too few bands at point   36  -0.04306   0.94436  -0.84028

Possibly too few bands at point   38  -0.04366   0.88880  -0.78762

Possibly too few bands at point  261   0.05490  -0.00285   0.05327

Possibly too few bands at point  276   0.05550   0.05271   0.00061

Possibly too few bands at point  278   0.06455   0.88604  -0.78929

Possibly too few bands at point  291   0.05550   0.05271   0.00061

Possibly too few bands at point  293   0.00220   0.05263   0.05555

Possibly too few bands at point  295   0.00159  -0.00293   0.10821

Possibly too few bands at point  308   0.00280   0.10818   0.00289

Possibly too few bands at point  310   0.01185   0.94151  -0.78701

Possibly too few bands at point  312   0.01124   0.88596  -0.73435

Possibly too few bands at point  323   0.00280   0.10818   0.00289

Possibly too few bands at point  756   0.10821  -0.00277  -0.00167

Possibly too few bands at point  771   0.10821  -0.00277  -0.00167

     YH6 electron-phonon 2x2x2 q (RTSC sodalite — Im-3m, Troyan 2021 measured 

     bravais-lattice index     =            0
     lattice parameter (alat)  =       5.8509  a.u.
     unit-cell volume          =     154.1693 (a.u.)^3
     number of atoms/cell      =            7
     number of atomic types    =            2
     kinetic-energy cut-off    =      80.0000  Ry
     charge density cut-off    =     800.0000  Ry
     convergence threshold     =      1.0E-14
     beta                      =       0.3000
     number of iterations used =            4
     Exchange-correlation= PBE
                           (   1   4   3   4   0   0   0)


     celldm(1)=    5.85092  celldm(2)=    0.00000  celldm(3)=    0.00000
     celldm(4)=    0.00000  celldm(5)=    0.00000  celldm(6)=    0.00000

     crystal axes: (cart. coord. in units of alat)
               a(1) = (  0.6006  0.5466  0.5835 )  
               a(2) = ( -0.5536  0.5760  0.6013 )  
               a(3) = ( -0.5835 -0.5778  0.5706 )  

     reciprocal axes: (cart. coord. in units 2 pi/alat)
               b(1) = (  0.8784 -0.0455  0.8523 )  
               b(2) = ( -0.8433  0.8876  0.0365 )  
               b(3) = ( -0.0096 -0.8889  0.8426 )  


     Atoms inside the unit cell: 

     Cartesian axes

     site n.  atom      mass           positions (alat units)
        1     Y   88.9059   tau(    1) = (   -0.02691   -0.04557   -0.06033  )
        2     H    1.0080   tau(    2) = (   -0.00764    0.52355    0.24356  )
        3     H    1.0080   tau(    3) = (   -0.01088    0.22720    0.52438  )
        4     H    1.0080   tau(    4) = (   -0.30691   -0.05380    0.52119  )
        5     H    1.0080   tau(    5) = (    0.00085    0.50794    0.82064  )
        6     H    1.0080   tau(    6) = (   -0.02588   -0.34974    0.50902  )
        7     H    1.0080   tau(    7) = (   -0.88397   -0.03916    0.53010  )

     Computing dynamical matrix for 
                    q = (   0.0048245   0.4444414  -0.4212803 )

      2 Sym.Ops. (with q -> -q+G )


     G cutoff =  693.7120  (   8401 G-vectors)     FFT grid: ( 54, 54, 54)
     G cutoff =  277.4848  (   2110 G-vectors)  smooth grid: ( 36, 36, 36)

     number of k points=  4104  Methfessel-Paxton smearing, width (Ry)=  0.0100

     PseudoPot. # 1 for Y  read from file:
     ./pseudo/Y.pbe-spn-rrkjus_psl.1.0.0.UPF
     MD5 check sum: 5fe32e6a006803c2ec2edff47948a3c8
     Pseudo is Ultrasoft + core correction, Zval = 11.0
     Generated using &quot;atomic&quot; code by A. Dal Corso  v.6.2.2
     Using radial grid of 1223 points,  6 beta functions with: 
                l(1) =   0
                l(2) =   0
                l(3) =   1
                l(4) =   1
                l(5) =   2
                l(6) =   2
     Q(r) pseudized with 0 coefficients 


     PseudoPot. # 2 for H  read from file:
     ./pseudo/H.pbe-rrkjus_psl.1.0.0.UPF
     MD5 check sum: 3f4114867bd07edc7f1424d066fc1888
     Pseudo is Ultrasoft, Zval =  1.0
     Generated using &quot;atomic&quot; code by A. Dal Corso  v.6.3MaX
     Using radial grid of  929 points,  2 beta functions with: 
                l(1) =   0
                l(2) =   0
     Q(r) pseudized with 0 coefficients 


     Mode symmetry, C_1 (1)     point group:


     Atomic displacements:
     There are   21 irreducible representations

     Representation     1      1 modes -  To be done

     Representation     2      1 modes -  To be done

     Representation     3      1 modes -  To be done

     Representation     4      1 modes -  To be done

     Representation     5      1 modes -  To be done

     Representation     6      1 modes -  To be done

     Representation     7      1 modes -  To be done

     Representation     8      1 modes -  To be done

     Representation     9      1 modes -  To be done

     Representation    10      1 modes -  To be done

     Representation    11      1 modes -  To be done

     Representation    12      1 modes -  To be done

     Representation    13      1 modes -  To be done

     Representation    14      1 modes -  To be done

     Representation    15      1 modes -  To be done

     Representation    16      1 modes -  To be done

     Representation    17      1 modes -  To be done

     Representation    18      1 modes -  To be done

     Representation    19      1 modes -  To be done

     Representation    20      1 modes -  To be done

     Representation    21      1 modes -  To be done



     Alpha used in Ewald sum =   2.8000
     PHONON       :      1h56m CPU      2h 3m WALL



     Representation #   1 mode #   1

     Self-consistent Calculation

      iter #   1 total cpu time :  7464.7 secs   av.it.:   6.6
      thresh= 1.000E-02 alpha_mix =  0.300 |ddv_scf|^2 =  5.957E-06

      iter #   2 total cpu time :  7523.8 secs   av.it.:   9.4
      thresh= 2.441E-04 alpha_mix =  0.300 |ddv_scf|^2 =  1.031E-06

      iter #   3 total cpu time :  7585.5 secs   av.it.:   9.9
      thresh= 1.016E-04 alpha_mix =  0.300 |ddv_scf|^2 =  1.161E-08

      iter #   4 total cpu time :  7647.6 secs   av.it.:   9.4
      thresh= 1.077E-05 alpha_mix =  0.300 |ddv_scf|^2 =  4.764E-09

      iter #   5 total cpu time :  7715.2 secs   av.it.:  10.4
      thresh= 6.902E-06 alpha_mix =  0.300 |ddv_scf|^2 =  3.254E-11

      iter #   6 total cpu time :  7784.6 secs   av.it.:   9.7
      thresh= 5.705E-07 alpha_mix =  0.300 |ddv_scf|^2 =  6.956E-12

      iter #   7 total cpu time :  7851.7 secs   av.it.:  10.3
      thresh= 2.637E-07 alpha_mix =  0.300 |ddv_scf|^2 =  1.261E-13

      iter #   8 total cpu time :  7919.1 secs   av.it.:   9.1
      thresh= 3.551E-08 alpha_mix =  0.300 |ddv_scf|^2 =  5.351E-14

      iter #   9 total cpu time :  7989.9 secs   av.it.:  10.2
      thresh= 2.313E-08 alpha_mix =  0.300 |ddv_scf|^2 =  1.307E-15

     End of self-consistent calculation

     Convergence has been achieved 


     Representation #   2 mode #   2

     Self-consistent Calculation

      iter #   1 total cpu time :  8063.5 secs   av.it.:   7.1
      thresh= 1.000E-02 alpha_mix =  0.300 |ddv_scf|^2 =  1.042E-04

      iter #   2 total cpu time :  8127.5 secs   av.it.:   9.2
      thresh= 1.021E-03 alpha_mix =  0.300 |ddv_scf|^2 =  6.931E-06

      iter #   3 total cpu time :  8189.1 secs   av.it.:   8.9
      thresh= 2.633E-04 alpha_mix =  0.300 |ddv_scf|^2 =  1.533E-07

      iter #   4 total cpu time :  8260.0 secs   av.it.:  10.1
      thresh= 3.915E-05 alpha_mix =  0.300 |ddv_scf|^2 =  6.942E-09

      iter #   5 total cpu time :  8332.9 secs   av.it.:  10.3
      thresh= 8.332E-06 alpha_mix =  0.300 |ddv_scf|^2 =  4.739E-10

      iter #   6 total cpu time :  8404.9 secs   av.it.:  10.2
      thresh= 2.177E-06 alpha_mix =  0.300 |ddv_scf|^2 =  7.486E-11

      iter #   7 total cpu time :  8476.6 secs   av.it.:  10.7
      thresh= 8.652E-07 alpha_mix =  0.300 |ddv_scf|^2 =  1.005E-12

      iter #   8 total cpu time :  8547.3 secs   av.it.:  10.4
      thresh= 1.003E-07 alpha_mix =  0.300 |ddv_scf|^2 =  9.856E-14

      iter #   9 total cpu time :  8618.6 secs   av.it.:  10.5
      thresh= 3.139E-08 alpha_mix =  0.300 |ddv_scf|^2 =  1.188E-14

      iter #  10 total cpu time :  8684.6 secs   av.it.:   9.9
      thresh= 1.090E-08 alpha_mix =  0.300 |ddv_scf|^2 =  2.753E-15

     End of self-consistent calculation

     Convergence has been achieved 


     Representation #   3 mode #   3

     Self-consistent Calculation

      iter #   1 total cpu time :  8744.7 secs   av.it.:   7.0
      thresh= 1.000E-02 alpha_mix =  0.300 |ddv_scf|^2 =  9.405E-05

      iter #   2 total cpu time :  8805.4 secs   av.it.:   9.2
      thresh= 9.698E-04 alpha_mix =  0.300 |ddv_scf|^2 =  6.302E-06

      iter #   3 total cpu time :  8865.4 secs   av.it.:   8.9
      thresh= 2.510E-04 alpha_mix =  0.300 |ddv_scf|^2 =  1.619E-07

      iter #   4 total cpu time :  8930.3 secs   av.it.:  10.1
      thresh= 4.023E-05 alpha_mix =  0.300 |ddv_scf|^2 =  7.094E-09

      iter #   5 total cpu time :  8997.3 secs   av.it.:  10.3
      thresh= 8.422E-06 alpha_mix =  0.300 |ddv_scf|^2 =  4.545E-10

      iter #   6 total cpu time :  9063.1 secs   av.it.:  10.2
      thresh= 2.132E-06 alpha_mix =  0.300 |ddv_scf|^2 =  7.448E-11

      iter #   7 total cpu time :  9135.2 secs   av.it.:  10.7
      thresh= 8.630E-07 alpha_mix =  0.300 |ddv_scf|^2 =  1.013E-12

      iter #   8 total cpu time :  9201.3 secs   av.it.:  10.4
      thresh= 1.007E-07 alpha_mix =  0.300 |ddv_scf|^2 =  8.501E-14

      iter #   9 total cpu time :  9268.1 secs   av.it.:  10.4
      thresh= 2.916E-08 alpha_mix =  0.300 |ddv_scf|^2 =  1.092E-14

      iter #  10 total cpu time :  9335.5 secs   av.it.:   9.9
      thresh= 1.045E-08 alpha_mix =  0.300 |ddv_scf|^2 =  2.738E-15

     End of self-consistent calculation

     Convergence has been achieved 


     Representation #   4 mode #   4

     Self-consistent Calculation

      iter #   1 total cpu time :  9383.9 secs   av.it.:   4.2
      thresh= 1.000E-02 alpha_mix =  0.300 |ddv_scf|^2 =  8.143E-08

      iter #   2 total cpu time :  9447.3 secs   av.it.:   9.6
      thresh= 2.854E-05 alpha_mix =  0.300 |ddv_scf|^2 =  1.615E-08

      iter #   3 total cpu time :  9520.4 secs   av.it.:  10.3
      thresh= 1.271E-05 alpha_mix =  0.300 |ddv_scf|^2 =  4.416E-10

      iter #   4 total cpu time :  9590.0 secs   av.it.:  10.2
      thresh= 2.102E-06 alpha_mix =  0.300 |ddv_scf|^2 =  1.037E-10

      iter #   5 total cpu time :  9661.4 secs   av.it.:  10.7
      thresh= 1.018E-06 alpha_mix =  0.300 |ddv_scf|^2 =  3.419E-12

      iter #   6 total cpu time :  9729.3 secs   av.it.:  10.3
      thresh= 1.849E-07 alpha_mix =  0.300 |ddv_scf|^2 =  2.554E-13

      iter #   7 total cpu time :  9797.6 secs   av.it.:  10.3
      thresh= 5.053E-08 alpha_mix =  0.300 |ddv_scf|^2 =  2.297E-14

      iter #   8 total cpu time :  9862.5 secs   av.it.:   9.8
      thresh= 1.516E-08 alpha_mix =  0.300 |ddv_scf|^2 =  5.841E-15

     End of self-consistent calculation

     Convergence has been achieved 


     Representation #   5 mode #   5

     Self-consistent Calculation

      iter #   1 total cpu time :  9910.8 secs   av.it.:   4.4
      thresh= 1.000E-02 alpha_mix =  0.300 |ddv_scf|^2 =  1.073E-06

      iter #   2 total cpu time :  9973.8 secs   av.it.:   9.4
      thresh= 1.036E-04 alpha_mix =  0.300 |ddv_scf|^2 =  7.242E-08

      iter #   3 total cpu time : 10041.4 secs   av.it.:   9.3
      thresh= 2.691E-05 alpha_mix =  0.300 |ddv_scf|^2 =  3.258E-09

      iter #   4 total cpu time : 10108.0 secs   av.it.:  10.5
      thresh= 5.708E-06 alpha_mix =  0.300 |ddv_scf|^2 =  1.857E-10

      iter #   5 total cpu time : 10175.9 secs   av.it.:  10.3
      thresh= 1.363E-06 alpha_mix =  0.300 |ddv_scf|^2 =  2.671E-11

      iter #   6 total cpu time : 10245.7 secs   av.it.:  10.5
      thresh= 5.168E-07 alpha_mix =  0.300 |ddv_scf|^2 =  3.395E-12

      iter #   7 total cpu time : 10309.5 secs   av.it.:   9.5
      thresh= 1.843E-07 alpha_mix =  0.300 |ddv_scf|^2 =  1.179E-12

      iter #   8 total cpu time : 10378.5 secs   av.it.:  10.5
      thresh= 1.086E-07 alpha_mix =  0.300 |ddv_scf|^2 =  2.717E-14

      iter #   9 total cpu time : 10443.9 secs   av.it.:   9.7
      thresh= 1.648E-08 alpha_mix =  0.300 |ddv_scf|^2 =  8.697E-15

     End of self-consistent calculation

     Convergence has been achieved 


     Representation #   6 mode #   6

     Self-consistent Calculation

      iter #   1 total cpu time : 10493.6 secs   av.it.:   4.3
      thresh= 1.000E-02 alpha_mix =  0.300 |ddv_scf|^2 =  9.498E-07

      iter #   2 total cpu time : 10561.3 secs   av.it.:   9.4
      thresh= 9.746E-05 alpha_mix =  0.300 |ddv_scf|^2 =  6.399E-08

      iter #   3 total cpu time : 10627.0 secs   av.it.:   9.3
      thresh= 2.530E-05 alpha_mix =  0.300 |ddv_scf|^2 =  3.162E-09

      iter #   4 total cpu time : 10695.7 secs   av.it.:  10.4
      thresh= 5.623E-06 alpha_mix =  0.300 |ddv_scf|^2 =  1.985E-10

      iter #   5 total cpu time : 10764.3 secs   av.it.:  10.1
      thresh= 1.409E-06 alpha_mix =  0.300 |ddv_scf|^2 =  2.338E-11

      iter #   6 total cpu time : 10832.3 secs   av.it.:  10.2
      thresh= 4.835E-07 alpha_mix =  0.300 |ddv_scf|^2 =  2.973E-12

      iter #   7 total cpu time : 10896.3 secs   av.it.:   9.4
      thresh= 1.724E-07 alpha_mix =  0.300 |ddv_scf|^2 =  1.063E-12

      iter #   8 total cpu time : 10970.4 secs   av.it.:  10.5
      thresh= 1.031E-07 alpha_mix =  0.300 |ddv_scf|^2 =  2.972E-14

      iter #   9 total cpu time : 11035.6 secs   av.it.:   9.9
      thresh= 1.724E-08 alpha_mix =  0.300 |ddv_scf|^2 =  8.778E-15

     End of self-consistent calculation

     Convergence has been achieved 


     Representation #   7 mode #   7

     Self-consistent Calculation

      iter #   1 total cpu time : 11082.6 secs   av.it.:   4.2
      thresh= 1.000E-02 alpha_mix =  0.300 |ddv_scf|^2 =  8.142E-08

      iter #   2 total cpu time : 11146.5 secs   av.it.:   9.6
      thresh= 2.853E-05 alpha_mix =  0.300 |ddv_scf|^2 =  1.615E-08

      iter #   3 total cpu time : 11212.2 secs   av.it.:  10.3
      thresh= 1.271E-05 alpha_mix =  0.300 |ddv_scf|^2 =  4.423E-10

      iter #   4 total cpu time : 11275.5 secs   av.it.:  10.2
      thresh= 2.103E-06 alpha_mix =  0.300 |ddv_scf|^2 =  1.056E-10

      iter #   5 total cpu time : 11344.1 secs   av.it.:  10.7
      thresh= 1.028E-06 alpha_mix =  0.300 |ddv_scf|^2 =  3.431E-12

      iter #   6 total cpu time : 11410.0 secs   av.it.:  10.3
      thresh= 1.852E-07 alpha_mix =  0.300 |ddv_scf|^2 =  2.486E-13

      iter #   7 total cpu time : 11476.5 secs   av.it.:  10.3
      thresh= 4.986E-08 alpha_mix =  0.300 |ddv_scf|^2 =  2.306E-14

      iter #   8 total cpu time : 11538.0 secs   av.it.:   9.7
      thresh= 1.518E-08 alpha_mix =  0.300 |ddv_scf|^2 =  5.793E-15

     End of self-consistent calculation

     Convergence has been achieved 


     Representation #   8 mode #   8

     Self-consistent Calculation

      iter #   1 total cpu time : 11587.4 secs   av.it.:   4.3
      thresh= 1.000E-02 alpha_mix =  0.300 |ddv_scf|^2 =  1.052E-06

      iter #   2 total cpu time : 11647.3 secs   av.it.:   9.4
      thresh= 1.026E-04 alpha_mix =  0.300 |ddv_scf|^2 =  7.003E-08

      iter #   3 total cpu time : 11708.1 secs   av.it.:   9.3
      thresh= 2.646E-05 alpha_mix =  0.300 |ddv_scf|^2 =  3.039E-09

      iter #   4 total cpu time : 11778.1 secs   av.it.:  10.4
      thresh= 5.513E-06 alpha_mix =  0.300 |ddv_scf|^2 =  1.945E-10

      iter #   5 total cpu time : 11847.3 secs   av.it.:  10.1
      thresh= 1.395E-06 alpha_mix =  0.300 |ddv_scf|^2 =  2.485E-11

      iter #   6 total cpu time : 11914.7 secs   av.it.:  10.3
      thresh= 4.985E-07 alpha_mix =  0.300 |ddv_scf|^2 =  2.881E-12

      iter #   7 total cpu time : 11976.9 secs   av.it.:   9.4
      thresh= 1.697E-07 alpha_mix =  0.300 |ddv_scf|^2 =  1.037E-12

      iter #   8 total cpu time : 12044.3 secs   av.it.:  10.5
      thresh= 1.019E-07 alpha_mix =  0.300 |ddv_scf|^2 =  2.961E-14

      iter #   9 total cpu time : 12106.4 secs   av.it.:   9.8
      thresh= 1.721E-08 alpha_mix =  0.300 |ddv_scf|^2 =  8.903E-15

     End of self-consistent calculation

     Convergence has been achieved 


     Representation #   9 mode #   9

     Self-consistent Calculation

      iter #   1 total cpu time : 12152.5 secs   av.it.:   4.4
      thresh= 1.000E-02 alpha_mix =  0.300 |ddv_scf|^2 =  9.702E-07

      iter #   2 total cpu time : 12214.7 secs   av.it.:   9.4
      thresh= 9.850E-05 alpha_mix =  0.300 |ddv_scf|^2 =  6.629E-08

      iter #   3 total cpu time : 12276.0 secs   av.it.:   9.3
      thresh= 2.575E-05 alpha_mix =  0.300 |ddv_scf|^2 =  3.382E-09

      iter #   4 total cpu time : 12344.5 secs   av.it.:  10.5
      thresh= 5.815E-06 alpha_mix =  0.300 |ddv_scf|^2 =  1.911E-10

      iter #   5 total cpu time : 12412.8 secs   av.it.:  10.4
      thresh= 1.383E-06 alpha_mix =  0.300 |ddv_scf|^2 =  2.540E-11

      iter #   6 total cpu time : 12479.9 secs   av.it.:  10.5
      thresh= 5.040E-07 alpha_mix =  0.300 |ddv_scf|^2 =  3.474E-12

      iter #   7 total cpu time : 12541.8 secs   av.it.:   9.6
      thresh= 1.864E-07 alpha_mix =  0.300 |ddv_scf|^2 =  1.202E-12

      iter #   8 total cpu time : 12610.9 secs   av.it.:  10.5
      thresh= 1.096E-07 alpha_mix =  0.300 |ddv_scf|^2 =  2.647E-14

      iter #   9 total cpu time : 12672.5 secs   av.it.:   9.8
      thresh= 1.627E-08 alpha_mix =  0.300 |ddv_scf|^2 =  8.336E-15

     End of self-consistent calculation

     Convergence has been achieved 


     Representation #  10 mode #  10

     Self-consistent Calculation

      iter #   1 total cpu time : 12719.1 secs   av.it.:   4.0
      thresh= 1.000E-02 alpha_mix =  0.300 |ddv_scf|^2 =  8.051E-08

      iter #   2 total cpu time : 12780.1 secs   av.it.:   9.2
      thresh= 2.837E-05 alpha_mix =  0.300 |ddv_scf|^2 =  1.483E-08

      iter #   3 total cpu time : 12848.8 secs   av.it.:  10.0
[...]
     lambda(   17)=  0.1353   gamma= 1047.77 GHz
     lambda(   18)=  0.0202   gamma=  162.55 GHz
     lambda(   19)=  0.0466   gamma=  447.13 GHz
     lambda(   20)=  0.0248   gamma=  245.97 GHz
     lambda(   21)=  0.0482   gamma=  526.95 GHz

     Gaussian Broadening:   0.035 Ry, ngauss=   0
     DOS =  4.915220 states/spin/Ry/Unit Cell at Ef= 19.581860 eV
     double delta at Ef = 46.608069
     lambda(    1)=  0.0789   gamma=   11.05 GHz
     lambda(    2)=  0.0176   gamma=    3.19 GHz
     lambda(    3)=  0.0494   gamma=   19.18 GHz
     lambda(    4)=  0.4028   gamma= 1228.00 GHz
     lambda(    5)=  0.4006   gamma= 1719.59 GHz
     lambda(    6)=  0.0238   gamma=  126.39 GHz
     lambda(    7)=  0.2033   gamma= 1092.93 GHz
     lambda(    8)=  0.1786   gamma=  981.46 GHz
     lambda(    9)=  0.0365   gamma=  219.79 GHz
     lambda(   10)=  0.0611   gamma=  369.98 GHz
     lambda(   11)=  0.0307   gamma=  192.32 GHz
     lambda(   12)=  0.1242   gamma=  851.74 GHz
     lambda(   13)=  0.0545   gamma=  377.07 GHz
     lambda(   14)=  0.0457   gamma=  326.16 GHz
     lambda(   15)=  0.0654   gamma=  480.49 GHz
     lambda(   16)=  0.0518   gamma=  395.53 GHz
     lambda(   17)=  0.1266   gamma=  987.24 GHz
     lambda(   18)=  0.0191   gamma=  155.24 GHz
     lambda(   19)=  0.0459   gamma=  444.27 GHz
     lambda(   20)=  0.0243   gamma=  242.49 GHz
     lambda(   21)=  0.0479   gamma=  526.88 GHz

     Gaussian Broadening:   0.040 Ry, ngauss=   0
     DOS =  4.881241 states/spin/Ry/Unit Cell at Ef= 19.578157 eV
     double delta at Ef = 44.957930
     lambda(    1)=  0.0794   gamma=   11.03 GHz
     lambda(    2)=  0.0188   gamma=    3.39 GHz
     lambda(    3)=  0.0479   gamma=   18.45 GHz
     lambda(    4)=  0.3936   gamma= 1191.84 GHz
     lambda(    5)=  0.3816   gamma= 1626.82 GHz
     lambda(    6)=  0.0243   gamma=  128.10 GHz
     lambda(    7)=  0.2036   gamma= 1087.13 GHz
     lambda(    8)=  0.1793   gamma=  978.73 GHz
     lambda(    9)=  0.0357   gamma=  213.10 GHz
     lambda(   10)=  0.0573   gamma=  344.62 GHz
     lambda(   11)=  0.0313   gamma=  195.12 GHz
     lambda(   12)=  0.1225   gamma=  834.60 GHz
     lambda(   13)=  0.0511   gamma=  351.67 GHz
     lambda(   14)=  0.0429   gamma=  304.38 GHz
     lambda(   15)=  0.0642   gamma=  468.67 GHz
     lambda(   16)=  0.0498   gamma=  378.05 GHz
     lambda(   17)=  0.1198   gamma=  928.23 GHz
     lambda(   18)=  0.0187   gamma=  150.50 GHz
     lambda(   19)=  0.0455   gamma=  437.01 GHz
     lambda(   20)=  0.0243   gamma=  240.63 GHz
     lambda(   21)=  0.0474   gamma=  518.08 GHz

     Gaussian Broadening:   0.045 Ry, ngauss=   0
     DOS =  4.824365 states/spin/Ry/Unit Cell at Ef= 19.576372 eV
     double delta at Ef = 43.561577
     lambda(    1)=  0.0798   gamma=   10.97 GHz
     lambda(    2)=  0.0200   gamma=    3.57 GHz
     lambda(    3)=  0.0471   gamma=   17.94 GHz
     lambda(    4)=  0.3861   gamma= 1155.54 GHz
     lambda(    5)=  0.3648   gamma= 1536.97 GHz
     lambda(    6)=  0.0250   gamma=  130.20 GHz
     lambda(    7)=  0.2024   gamma= 1067.81 GHz
     lambda(    8)=  0.1800   gamma=  971.10 GHz
     lambda(    9)=  0.0355   gamma=  209.86 GHz
     lambda(   10)=  0.0551   gamma=  327.23 GHz
     lambda(   11)=  0.0324   gamma=  199.49 GHz
     lambda(   12)=  0.1210   gamma=  814.75 GHz
     lambda(   13)=  0.0490   gamma=  332.99 GHz
     lambda(   14)=  0.0412   gamma=  288.81 GHz
     lambda(   15)=  0.0636   gamma=  458.78 GHz
     lambda(   16)=  0.0484   gamma=  362.65 GHz
     lambda(   17)=  0.1142   gamma=  874.16 GHz
     lambda(   18)=  0.0186   gamma=  147.93 GHz
     lambda(   19)=  0.0452   gamma=  429.06 GHz
     lambda(   20)=  0.0246   gamma=  240.74 GHz
     lambda(   21)=  0.0468   gamma=  505.63 GHz

     Gaussian Broadening:   0.050 Ry, ngauss=   0
     DOS =  4.769059 states/spin/Ry/Unit Cell at Ef= 19.575659 eV
     double delta at Ef = 42.439681
     lambda(    1)=  0.0801   gamma=   10.88 GHz
     lambda(    2)=  0.0212   gamma=    3.73 GHz
     lambda(    3)=  0.0468   gamma=   17.61 GHz
     lambda(    4)=  0.3803   gamma= 1125.12 GHz
     lambda(    5)=  0.3494   gamma= 1455.45 GHz
     lambda(    6)=  0.0258   gamma=  132.81 GHz
     lambda(    7)=  0.1998   gamma= 1042.14 GHz
     lambda(    8)=  0.1804   gamma=  961.81 GHz
     lambda(    9)=  0.0358   gamma=  209.30 GHz
     lambda(   10)=  0.0536   gamma=  315.17 GHz
     lambda(   11)=  0.0336   gamma=  204.64 GHz
     lambda(   12)=  0.1196   gamma=  796.09 GHz
     lambda(   13)=  0.0476   gamma=  319.81 GHz
     lambda(   14)=  0.0401   gamma=  278.07 GHz
     lambda(   15)=  0.0633   gamma=  451.12 GHz
     lambda(   16)=  0.0472   gamma=  349.70 GHz
     lambda(   17)=  0.1091   gamma=  826.06 GHz
     lambda(   18)=  0.0187   gamma=  146.90 GHz
     lambda(   19)=  0.0450   gamma=  421.85 GHz
     lambda(   20)=  0.0251   gamma=  242.84 GHz
     lambda(   21)=  0.0461   gamma=  492.08 GHz

     Calculation of q =   -0.4392089   0.0227743  -0.4261365

     Parallelization info
     --------------------
     sticks:   dense  smooth     PW     G-vecs:    dense   smooth      PW
     Min         294     116     44                 8399     2109     501
     Max         295     117     45                 8401     2111     503
     Sum        2061     817    311                58799    14771    3511


     Title: 
     YH6 electron-phonon 2x2x2 q (RTSC sodalite — Im-3m, Troyan 2021 measured 


     bravais-lattice index     =            0
     lattice parameter (alat)  =       5.8509  a.u.
     unit-cell volume          =     154.1693 (a.u.)^3
     number of atoms/cell      =            7
     number of atomic types    =            2
     number of electrons       =        17.00
     number of Kohn-Sham states=           13
     kinetic-energy cutoff     =      80.0000  Ry
     charge density cutoff     =     800.0000  Ry
     Exchange-correlation= PBE
                           (   1   4   3   4   0   0   0)

     celldm(1)=   5.850924  celldm(2)=   0.000000  celldm(3)=   0.000000
     celldm(4)=   0.000000  celldm(5)=   0.000000  celldm(6)=   0.000000

     crystal axes: (cart. coord. in units of alat)
               a(1) = (   0.600583   0.546610   0.583539 )  
               a(2) = (  -0.553567   0.576004   0.601332 )  
               a(3) = (  -0.583549  -0.577839   0.570568 )  

     reciprocal axes: (cart. coord. in units 2 pi/alat)
               b(1) = (  0.878418 -0.045549  0.852273 )  
               b(2) = ( -0.843271  0.887609  0.036464 )  
               b(3) = ( -0.009649 -0.888883  0.842561 )  


     PseudoPot. # 1 for Y  read from file:
     ./pseudo/Y.pbe-spn-rrkjus_psl.1.0.0.UPF
     MD5 check sum: 5fe32e6a006803c2ec2edff47948a3c8
     Pseudo is Ultrasoft + core correction, Zval = 11.0
     Generated using &quot;atomic&quot; code by A. Dal Corso  v.6.2.2
     Using radial grid of 1223 points,  6 beta functions with: 
                l(1) =   0
                l(2) =   0
                l(3) =   1
                l(4) =   1
                l(5) =   2
                l(6) =   2
     Q(r) pseudized with 0 coefficients 


     PseudoPot. # 2 for H  read from file:
     ./pseudo/H.pbe-rrkjus_psl.1.0.0.UPF
     MD5 check sum: 3f4114867bd07edc7f1424d066fc1888
     Pseudo is Ultrasoft, Zval =  1.0
     Generated using &quot;atomic&quot; code by A. Dal Corso  v.6.3MaX
     Using radial grid of  929 points,  2 beta functions with: 
                l(1) =   0
                l(2) =   0
     Q(r) pseudized with 0 coefficients 


     atomic species   valence    mass     pseudopotential
        Y             11.00    88.90590     Y ( 1.00)
        H              1.00     1.00800     H ( 1.00)

     No symmetry found



   Cartesian axes

     site n.     atom                  positions (alat units)
         1           Y   tau(   1) = (  -0.0269113  -0.0455743  -0.0603317  )
         2           H   tau(   2) = (  -0.0076430   0.5235507   0.2435645  )
         3           H   tau(   3) = (  -0.0108784   0.2272024   0.5243766  )
         4           H   tau(   4) = (  -0.3069144  -0.0538022   0.5211933  )
         5           H   tau(   5) = (   0.0008486   0.5079443   0.8206392  )
         6           H   tau(   6) = (  -0.0258809  -0.3497438   0.5090166  )
         7           H   tau(   7) = (  -0.8839651  -0.0391610   0.5300967  )

     number of k points=  4104  Methfessel-Paxton smearing, width (Ry)=  0.0100

     Number of k-points >= 100: set verbosity='high' to print them.

     Dense  grid:    58799 G-vectors     FFT dimensions: (  54,  54,  54)

     Smooth grid:    14771 G-vectors     FFT dimensions: (  36,  36,  36)

     Estimated max dynamical RAM per process >      32.50 MB

     Estimated total dynamical RAM >     227.49 MB

     The potential is recalculated from file :
     ./out/_ph0/yh6.q_5/yh6.save/charge-density

     Starting wfcs are   19 atomic wfcs

     Band Structure Calculation
     Davidson diagonalization with overlap

     ethr =  5.88E-11,  avg # of iterations = 16.1

     total cpu time spent up to now is     1006.9 secs

     End of band structure calculation

     Number of k-points >= 100: set verbosity='high' to print the bands.

     the Fermi energy is    19.6381 ev

     Writing output data file ./out/_ph0/yh6.q_5/yh6.save/
WARNING(FoX)
emitting non-ASCII character. Platform-dependent result!
WARNING(FoX)
emitting non-ASCII character. Platform-dependent result!
WARNING(FoX)
emitting non-ASCII character. Platform-dependent result!

Possibly too few bands at point    1   0.00000   0.00000   0.00000

Possibly too few bands at point    3  -0.00060  -0.05556   0.05266

Possibly too few bands at point   19  -0.05270   0.05548   0.00228

Possibly too few bands at point   21  -0.05331  -0.00008   0.05494

Possibly too few bands at point  261   0.05490  -0.00285   0.05327

Possibly too few bands at point  291   0.05550   0.05271   0.00061

Possibly too few bands at point  293   0.00220   0.05263   0.05555

Possibly too few bands at point  295   0.00159  -0.00293   0.10821

Possibly too few bands at point  323   0.00280   0.10818   0.00289

Possibly too few bands at point  771   0.10821  -0.00277  -0.00167

Possibly too few bands at point 3334  -0.05490   0.00285  -0.05327

Possibly too few bands at point 3336  -0.05550  -0.05271  -0.00061

Possibly too few bands at point 3368  -0.10821   0.00277   0.00167

Possibly too few bands at point 3814  -0.00220  -0.05263  -0.05555

Possibly too few bands at point 3816  -0.00280  -0.10818  -0.00289

Possibly too few bands at point 3844  -0.00159   0.00293  -0.10821

Possibly too few bands at point 3846  -0.87842   0.04555  -0.85227

Possibly too few bands at point 3848  -0.87902  -0.01001  -0.79961

Possibly too few bands at point 3864  -0.93112   0.10102  -0.84999

Possibly too few bands at point 3866  -0.93173   0.04547  -0.79733

     YH6 electron-phonon 2x2x2 q (RTSC sodalite — Im-3m, Troyan 2021 measured 

     bravais-lattice index     =            0
     lattice parameter (alat)  =       5.8509  a.u.
     unit-cell volume          =     154.1693 (a.u.)^3
     number of atoms/cell      =            7
     number of atomic types    =            2
     kinetic-energy cut-off    =      80.0000  Ry
     charge density cut-off    =     800.0000  Ry
     convergence threshold     =      1.0E-14
     beta                      =       0.3000
     number of iterations used =            4
     Exchange-correlation= PBE
                           (   1   4   3   4   0   0   0)


     celldm(1)=    5.85092  celldm(2)=    0.00000  celldm(3)=    0.00000
     celldm(4)=    0.00000  celldm(5)=    0.00000  celldm(6)=    0.00000

     crystal axes: (cart. coord. in units of alat)
               a(1) = (  0.6006  0.5466  0.5835 )  
               a(2) = ( -0.5536  0.5760  0.6013 )  
               a(3) = ( -0.5835 -0.5778  0.5706 )  

     reciprocal axes: (cart. coord. in units 2 pi/alat)
               b(1) = (  0.8784 -0.0455  0.8523 )  
               b(2) = ( -0.8433  0.8876  0.0365 )  
               b(3) = ( -0.0096 -0.8889  0.8426 )  


     Atoms inside the unit cell: 

     Cartesian axes

     site n.  atom      mass           positions (alat units)
        1     Y   88.9059   tau(    1) = (   -0.02691   -0.04557   -0.06033  )
        2     H    1.0080   tau(    2) = (   -0.00764    0.52355    0.24356  )
        3     H    1.0080   tau(    3) = (   -0.01088    0.22720    0.52438  )
        4     H    1.0080   tau(    4) = (   -0.30691   -0.05380    0.52119  )
        5     H    1.0080   tau(    5) = (    0.00085    0.50794    0.82064  )
        6     H    1.0080   tau(    6) = (   -0.02588   -0.34974    0.50902  )
        7     H    1.0080   tau(    7) = (   -0.88397   -0.03916    0.53010  )

     Computing dynamical matrix for 
                    q = (  -0.4392089   0.0227743  -0.4261365 )

      2 Sym.Ops. (with q -> -q+G )


     G cutoff =  693.7120  (   8401 G-vectors)     FFT grid: ( 54, 54, 54)
     G cutoff =  277.4848  (   2110 G-vectors)  smooth grid: ( 36, 36, 36)

     number of k points=  4104  Methfessel-Paxton smearing, width (Ry)=  0.0100

     PseudoPot. # 1 for Y  read from file:
     ./pseudo/Y.pbe-spn-rrkjus_psl.1.0.0.UPF
     MD5 check sum: 5fe32e6a006803c2ec2edff47948a3c8
     Pseudo is Ultrasoft + core correction, Zval = 11.0
     Generated using &quot;atomic&quot; code by A. Dal Corso  v.6.2.2
     Using radial grid of 1223 points,  6 beta functions with: 
                l(1) =   0
                l(2) =   0
                l(3) =   1
                l(4) =   1
                l(5) =   2
                l(6) =   2
     Q(r) pseudized with 0 coefficients 


     PseudoPot. # 2 for H  read from file:
     ./pseudo/H.pbe-rrkjus_psl.1.0.0.UPF
     MD5 check sum: 3f4114867bd07edc7f1424d066fc1888
     Pseudo is Ultrasoft, Zval =  1.0
     Generated using &quot;atomic&quot; code by A. Dal Corso  v.6.3MaX
     Using radial grid of  929 points,  2 beta functions with: 
                l(1) =   0
                l(2) =   0
     Q(r) pseudized with 0 coefficients 


     Mode symmetry, C_1 (1)     point group:


     Atomic displacements:
     There are   21 irreducible representations

     Representation     1      1 modes -  To be done

     Representation     2      1 modes -  To be done

     Representation     3      1 modes -  To be done

     Representation     4      1 modes -  To be done

     Representation     5      1 modes -  To be done

     Representation     6      1 modes -  To be done

     Representation     7      1 modes -  To be done

     Representation     8      1 modes -  To be done

     Representation     9      1 modes -  To be done

     Representation    10      1 modes -  To be done

     Representation    11      1 modes -  To be done

     Representation    12      1 modes -  To be done

     Representation    13      1 modes -  To be done

     Representation    14      1 modes -  To be done

     Representation    15      1 modes -  To be done

     Representation    16      1 modes -  To be done

     Representation    17      1 modes -  To be done

     Representation    18      1 modes -  To be done

     Representation    19      1 modes -  To be done

     Representation    20      1 modes -  To be done

     Representation    21      1 modes -  To be done



     Alpha used in Ewald sum =   2.8000
     PHONON       :      9h46m CPU     11h29m WALL



     Representation #   1 mode #   1

     Self-consistent Calculation

      iter #   1 total cpu time : 41410.7 secs   av.it.:   7.1
      thresh= 1.000E-02 alpha_mix =  0.300 |ddv_scf|^2 =  1.019E-04

      iter #   2 total cpu time : 41467.6 secs   av.it.:   9.2
      thresh= 1.009E-03 alpha_mix =  0.300 |ddv_scf|^2 =  6.790E-06

      iter #   3 total cpu time : 41524.0 secs   av.it.:   8.9
      thresh= 2.606E-04 alpha_mix =  0.300 |ddv_scf|^2 =  1.553E-07

      iter #   4 total cpu time : 41585.7 secs   av.it.:  10.1
      thresh= 3.941E-05 alpha_mix =  0.300 |ddv_scf|^2 =  6.978E-09

      iter #   5 total cpu time : 41648.8 secs   av.it.:  10.3
      thresh= 8.354E-06 alpha_mix =  0.300 |ddv_scf|^2 =  4.695E-10

      iter #   6 total cpu time : 41710.8 secs   av.it.:  10.2
      thresh= 2.167E-06 alpha_mix =  0.300 |ddv_scf|^2 =  7.482E-11

      iter #   7 total cpu time : 41775.6 secs   av.it.:  10.7
      thresh= 8.650E-07 alpha_mix =  0.300 |ddv_scf|^2 =  1.007E-12

      iter #   8 total cpu time : 41839.1 secs   av.it.:  10.4
      thresh= 1.004E-07 alpha_mix =  0.300 |ddv_scf|^2 =  9.498E-14

      iter #   9 total cpu time : 41902.8 secs   av.it.:  10.4
      thresh= 3.082E-08 alpha_mix =  0.300 |ddv_scf|^2 =  1.164E-14

      iter #  10 total cpu time : 41963.8 secs   av.it.:   9.9
      thresh= 1.079E-08 alpha_mix =  0.300 |ddv_scf|^2 =  2.750E-15

     End of self-consistent calculation

     Convergence has been achieved 


     Representation #   2 mode #   2

     Self-consistent Calculation

      iter #   1 total cpu time : 42019.2 secs   av.it.:   6.6
      thresh= 1.000E-02 alpha_mix =  0.300 |ddv_scf|^2 =  6.208E-06

      iter #   2 total cpu time : 42077.6 secs   av.it.:   9.4
      thresh= 2.491E-04 alpha_mix =  0.300 |ddv_scf|^2 =  1.047E-06

      iter #   3 total cpu time : 42138.0 secs   av.it.:   9.8
      thresh= 1.023E-04 alpha_mix =  0.300 |ddv_scf|^2 =  3.713E-08

      iter #   4 total cpu time : 42197.7 secs   av.it.:   9.6
      thresh= 1.927E-05 alpha_mix =  0.300 |ddv_scf|^2 =  5.634E-09

      iter #   5 total cpu time : 42261.3 secs   av.it.:  10.4
      thresh= 7.506E-06 alpha_mix =  0.300 |ddv_scf|^2 =  3.269E-11

      iter #   6 total cpu time : 42321.4 secs   av.it.:   9.7
      thresh= 5.717E-07 alpha_mix =  0.300 |ddv_scf|^2 =  7.191E-12

      iter #   7 total cpu time : 42384.7 secs   av.it.:  10.4
      thresh= 2.682E-07 alpha_mix =  0.300 |ddv_scf|^2 =  1.235E-13

      iter #   8 total cpu time : 42441.9 secs   av.it.:   9.1
      thresh= 3.515E-08 alpha_mix =  0.300 |ddv_scf|^2 =  5.196E-14

      iter #   9 total cpu time : 42504.6 secs   av.it.:  10.2
      thresh= 2.280E-08 alpha_mix =  0.300 |ddv_scf|^2 =  9.410E-16

     End of self-consistent calculation

     Convergence has been achieved 


     Representation #   3 mode #   3

     Self-consistent Calculation

      iter #   1 total cpu time : 42563.3 secs   av.it.:   7.0
      thresh= 1.000E-02 alpha_mix =  0.300 |ddv_scf|^2 =  9.616E-05

      iter #   2 total cpu time : 42621.5 secs   av.it.:   9.2
      thresh= 9.806E-04 alpha_mix =  0.300 |ddv_scf|^2 =  6.436E-06

      iter #   3 total cpu time : 42678.1 secs   av.it.:   8.9
      thresh= 2.537E-04 alpha_mix =  0.300 |ddv_scf|^2 =  1.602E-07

      iter #   4 total cpu time : 42741.0 secs   av.it.:  10.1
      thresh= 4.002E-05 alpha_mix =  0.300 |ddv_scf|^2 =  7.063E-09

      iter #   5 total cpu time : 42804.8 secs   av.it.:  10.3
      thresh= 8.404E-06 alpha_mix =  0.300 |ddv_scf|^2 =  4.585E-10

      iter #   6 total cpu time : 42867.2 secs   av.it.:  10.2
      thresh= 2.141E-06 alpha_mix =  0.300 |ddv_scf|^2 =  7.458E-11

      iter #   7 total cpu time : 42933.9 secs   av.it.:  10.7
      thresh= 8.636E-07 alpha_mix =  0.300 |ddv_scf|^2 =  1.012E-12

      iter #   8 total cpu time : 42997.7 secs   av.it.:  10.4
      thresh= 1.006E-07 alpha_mix =  0.300 |ddv_scf|^2 =  8.706E-14

      iter #   9 total cpu time : 43061.5 secs   av.it.:  10.4
      thresh= 2.951E-08 alpha_mix =  0.300 |ddv_scf|^2 =  1.111E-14

      iter #  10 total cpu time : 43122.5 secs   av.it.:   9.9
      thresh= 1.054E-08 alpha_mix =  0.300 |ddv_scf|^2 =  2.743E-15

     End of self-consistent calculation

     Convergence has been achieved 


     Representation #   4 mode #   4

     Self-consistent Calculation

      iter #   1 total cpu time : 43167.0 secs   av.it.:   4.4
      thresh= 1.000E-02 alpha_mix =  0.300 |ddv_scf|^2 =  1.049E-06
mpirun: Forwarding signal 18 to job
