
     Program PWSCF v.6.7MaX starts on 31May2026 at  5:59:57 

     This program is part of the open-source Quantum ESPRESSO suite
     for quantum simulation of materials; please cite
         "P. Giannozzi et al., J. Phys.:Condens. Matter 21 395502 (2009);
         "P. Giannozzi et al., J. Phys.:Condens. Matter 29 465901 (2017);
          URL http://www.quantum-espresso.org", 
     in publications or presentations arising from this work. More details at
     http://www.quantum-espresso.org/quote

     Parallel version (MPI), running on     7 processors

     MPI processes distributed on     1 nodes
     R & G space division:  proc/nbgrp/npool/nimage =       7
     Reading input from vc-relax.in

     Current dimensions of program PWSCF are:
     Max number of different atomic species (ntypx) = 10
     Max number of k-points (npk) =  40000
     Max angular momentum in pseudopotentials (lmaxx) =  3
     file Y.pbe-spn-rrkjus_psl.1.0.0.UPF: wavefunction(s)  4S renormalized

     Subspace diagonalization in iterative solution of the eigenvalue problem:
     a serial algorithm will be used


     Parallelization info
     --------------------
     sticks:   dense  smooth     PW     G-vecs:    dense   smooth      PW
     Min         290     115     39                 8228     2089     413
     Max         291     116     40                 8229     2090     415
     Sum        2033     809    277                57599    14627    2899



     bravais-lattice index     =            3
     lattice parameter (alat)  =       6.7100  a.u.
     unit-cell volume          =     151.0559 (a.u.)^3
     number of atoms/cell      =            7
     number of atomic types    =            2
     number of electrons       =        17.00
     number of Kohn-Sham states=           13
     kinetic-energy cutoff     =      80.0000  Ry
     charge density cutoff     =     800.0000  Ry
     scf convergence threshold =      1.0E-10
     mixing beta               =       0.3000
     number of iterations used =            8  plain     mixing
     energy convergence thresh.=      1.0E-06
     force convergence thresh. =      1.0E-04
     press convergence thresh. =      5.0E-01
     Exchange-correlation= PBE
                           (   1   4   3   4   0   0   0)
     nstep                     =          200


     celldm(1)=   6.710000  celldm(2)=   0.000000  celldm(3)=   0.000000
     celldm(4)=   0.000000  celldm(5)=   0.000000  celldm(6)=   0.000000

     crystal axes: (cart. coord. in units of alat)
               a(1) = (   0.500000   0.500000   0.500000 )  
               a(2) = (  -0.500000   0.500000   0.500000 )  
               a(3) = (  -0.500000  -0.500000   0.500000 )  

     reciprocal axes: (cart. coord. in units 2 pi/alat)
               b(1) = (  1.000000  0.000000  1.000000 )  
               b(2) = ( -1.000000  1.000000  0.000000 )  
               b(3) = (  0.000000 -1.000000  1.000000 )  


     PseudoPot. # 1 for Y  read from file:
     ./pseudo/Y.pbe-spn-rrkjus_psl.1.0.0.UPF
     MD5 check sum: 5fe32e6a006803c2ec2edff47948a3c8
     Pseudo is Ultrasoft + core correction, Zval = 11.0
     Generated using &quot;atomic&quot; code by A. Dal Corso  v.6.2.2
     Using radial grid of 1223 points,  6 beta functions with: 
                l(1) =   0
                l(2) =   0
                l(3) =   1
                l(4) =   1
                l(5) =   2
                l(6) =   2
     Q(r) pseudized with 0 coefficients 


     PseudoPot. # 2 for H  read from file:
     ./pseudo/H.pbe-rrkjus_psl.1.0.0.UPF
     MD5 check sum: 3f4114867bd07edc7f1424d066fc1888
     Pseudo is Ultrasoft, Zval =  1.0
     Generated using &quot;atomic&quot; code by A. Dal Corso  v.6.3MaX
     Using radial grid of  929 points,  2 beta functions with: 
                l(1) =   0
                l(2) =   0
     Q(r) pseudized with 0 coefficients 


     atomic species   valence    mass     pseudopotential
        Y             11.00    88.90590     Y ( 1.00)
        H              1.00     1.00800     H ( 1.00)

     No symmetry found



   Cartesian axes

     site n.     atom                  positions (alat units)
         1           Y   tau(   1) = (   0.0000000   0.0000000   0.0000000  )
         2           H   tau(   2) = (  -0.1250000   0.3750000   0.3750000  )
         3           H   tau(   3) = (   0.1250000   0.1250000   0.3750000  )
         4           H   tau(   4) = (  -0.3750000  -0.1250000   0.3750000  )
         5           H   tau(   5) = (   0.1250000   0.6250000   0.6250000  )
         6           H   tau(   6) = (  -0.1250000  -0.1250000   0.6250000  )
         7           H   tau(   7) = (  -0.6250000   0.1250000   0.6250000  )

     number of k points=  2052  Methfessel-Paxton smearing, width (Ry)=  0.0100

     Number of k-points >= 100: set verbosity='high' to print them.

     Dense  grid:    57599 G-vectors     FFT dimensions: (  54,  54,  54)

     Smooth grid:    14627 G-vectors     FFT dimensions: (  36,  36,  36)

     Estimated max dynamical RAM per process >     145.75 MB

     Estimated total dynamical RAM >    1020.28 MB

     Initial potential from superposition of free atoms

     starting charge   16.99586, renormalised to   17.00000
     Starting wfcs are   19 randomized atomic wfcs

     total cpu time spent up to now is        9.0 secs

     Self-consistent Calculation

     iteration #  1     ecut=    80.00 Ry     beta= 0.30
     Davidson diagonalization with overlap
     ethr =  1.00E-02,  avg # of iterations =  2.9

     Threshold (ethr) on eigenvalues was too large:
     Diagonalizing with lowered threshold

     Davidson diagonalization with overlap
     ethr =  8.33E-04,  avg # of iterations =  1.0

     total cpu time spent up to now is       42.4 secs

     total energy              =     -89.17675590 Ry
     estimated scf accuracy    <       0.14307720 Ry

     iteration #  2     ecut=    80.00 Ry     beta= 0.30
     Davidson diagonalization with overlap
     ethr =  8.42E-04,  avg # of iterations =  1.0

     total cpu time spent up to now is       56.2 secs

     total energy              =     -89.16361050 Ry
     estimated scf accuracy    <       0.04920672 Ry

     iteration #  3     ecut=    80.00 Ry     beta= 0.30
     Davidson diagonalization with overlap
     ethr =  2.89E-04,  avg # of iterations =  1.8

     total cpu time spent up to now is       71.1 secs

     total energy              =     -89.16757498 Ry
     estimated scf accuracy    <       0.00301303 Ry

     iteration #  4     ecut=    80.00 Ry     beta= 0.30
     Davidson diagonalization with overlap
     ethr =  1.77E-05,  avg # of iterations =  2.6

     total cpu time spent up to now is       89.5 secs

     total energy              =     -89.16801627 Ry
     estimated scf accuracy    <       0.00035675 Ry

     iteration #  5     ecut=    80.00 Ry     beta= 0.30
     Davidson diagonalization with overlap
     ethr =  2.10E-06,  avg # of iterations =  2.1

     total cpu time spent up to now is      104.5 secs

     total energy              =     -89.16799398 Ry
     estimated scf accuracy    <       0.00006413 Ry

     iteration #  6     ecut=    80.00 Ry     beta= 0.30
     Davidson diagonalization with overlap
     ethr =  3.77E-07,  avg # of iterations =  2.0

     total cpu time spent up to now is      122.6 secs

     total energy              =     -89.16801616 Ry
     estimated scf accuracy    <       0.00001359 Ry

     iteration #  7     ecut=    80.00 Ry     beta= 0.30
     Davidson diagonalization with overlap
     ethr =  7.99E-08,  avg # of iterations =  2.0

     total cpu time spent up to now is      138.8 secs

     total energy              =     -89.16801837 Ry
     estimated scf accuracy    <       0.00000024 Ry

     iteration #  8     ecut=    80.00 Ry     beta= 0.30
     Davidson diagonalization with overlap
     ethr =  1.41E-09,  avg # of iterations =  2.0

     total cpu time spent up to now is      156.9 secs

     total energy              =     -89.16801843 Ry
     estimated scf accuracy    <          3.5E-09 Ry

     iteration #  9     ecut=    80.00 Ry     beta= 0.30
     Davidson diagonalization with overlap
     ethr =  2.07E-11,  avg # of iterations =  2.6

     total cpu time spent up to now is      174.7 secs

     total energy              =     -89.16801843 Ry
     estimated scf accuracy    <          9.2E-10 Ry

     iteration # 10     ecut=    80.00 Ry     beta= 0.30
     Davidson diagonalization with overlap
     ethr =  5.41E-12,  avg # of iterations =  2.0

     total cpu time spent up to now is      192.8 secs

     total energy              =     -89.16801843 Ry
     estimated scf accuracy    <          4.0E-10 Ry

     iteration # 11     ecut=    80.00 Ry     beta= 0.30
     Davidson diagonalization with overlap
     ethr =  2.38E-12,  avg # of iterations =  1.7

     total cpu time spent up to now is      207.7 secs

     End of self-consistent calculation

     Number of k-points >= 100: set verbosity='high' to print the bands.

     the Fermi energy is    19.0737 ev

!    total energy              =     -89.16801843 Ry
     estimated scf accuracy    <          2.3E-11 Ry
     smearing contrib. (-TS)   =       0.00000971 Ry
     internal energy E=F+TS    =     -89.16802814 Ry

     The total energy is F=E-TS. E is the sum of the following terms:
     one-electron contribution =       7.41956188 Ry
     hartree contribution      =       8.57590157 Ry
     xc contribution           =     -23.76186229 Ry
     ewald contribution        =     -81.40162931 Ry

     convergence has been achieved in  11 iterations

     Forces acting on atoms (cartesian axes, Ry/au):

     atom    1 type  1   force =    -0.00000000    0.00000000    0.00000000
     atom    2 type  2   force =     0.26295603   -0.06862645   -0.07597669
     atom    3 type  2   force =     0.06862645    0.07597669    0.26295603
     atom    4 type  2   force =     0.07597669    0.26295603   -0.06862645
     atom    5 type  2   force =    -0.26295603    0.06862645    0.07597669
     atom    6 type  2   force =    -0.06862645   -0.07597669   -0.26295603
     atom    7 type  2   force =    -0.07597669   -0.26295603    0.06862645

     Total force =     0.691207     Total SCF correction =     0.000002


     Computing stress (Cartesian axis) and pressure

          total   stress  (Ry/bohr**3)                   (kbar)     P=     2547.13
   0.01731504   0.00136156  -0.00136156         2547.13      200.29     -200.29
   0.00136156   0.01731504   0.00136156          200.29     2547.13      200.29
  -0.00136156   0.00136156   0.01731504         -200.29      200.29     2547.13


     BFGS Geometry Optimization
     Energy error            =      0.0E+00
     Gradient error          =      2.6E-01
     Cell gradient error     =      6.0E-03


     number of scf cycles    =   1
     number of bfgs steps    =   0

     enthalpy new            =     -87.4634360837 Ry

     new trust radius        =       0.3890267503 bohr
     new conv_thr            =            1.0E-10 Ry

     new unit-cell volume =    229.57958 a.u.^3 (    34.02018 Ang^3 )
     density =      4.63474 g/cm^3

CELL_PARAMETERS (alat=  6.71000000)
   0.575382389   0.609421398   0.575382390
  -0.575382390   0.575382390   0.609421399
  -0.609421398  -0.575382387   0.575382388

ATOMIC_POSITIONS (crystal)
Y            -0.0000000001        0.0000000008       -0.0000000005
H             0.2778657729        0.4505838339       -0.0010954163
H             0.5494161659        0.0010954163        0.2778657729
H             0.0010954164        0.2778657726        0.4505838343
H             0.7221342272        0.5494161658        0.0010954165
H             0.4505838342       -0.0010954166        0.7221342272
H            -0.0010954164        0.7221342271        0.5494161659



     Writing output data file ./out/yh6.save/
     NEW-OLD atomic charge density approx. for the potential
     extrapolated charge   22.81314, renormalised to   17.00000

     total cpu time spent up to now is      213.2 secs

     Self-consistent Calculation

     iteration #  1     ecut=    80.00 Ry     beta= 0.30
     Davidson diagonalization with overlap
     c_bands:  1 eigenvalues not converged
     c_bands:  1 eigenvalues not converged
     c_bands:  1 eigenvalues not converged
     c_bands:  1 eigenvalues not converged
     c_bands:  1 eigenvalues not converged
     c_bands:  1 eigenvalues not converged
     c_bands:  1 eigenvalues not converged
     c_bands:  1 eigenvalues not converged
     c_bands:  1 eigenvalues not converged
     c_bands:  1 eigenvalues not converged
     c_bands:  1 eigenvalues not converged
     c_bands:  1 eigenvalues not converged
     c_bands:  1 eigenvalues not converged
     c_bands:  1 eigenvalues not converged
     c_bands:  1 eigenvalues not converged
     c_bands:  1 eigenvalues not converged
     c_bands:  1 eigenvalues not converged
     c_bands:  1 eigenvalues not converged
     c_bands:  1 eigenvalues not converged
     c_bands:  1 eigenvalues not converged
     c_bands:  1 eigenvalues not converged
     c_bands:  1 eigenvalues not converged
     c_bands:  1 eigenvalues not converged
     c_bands:  1 eigenvalues not converged
     c_bands:  1 eigenvalues not converged
     c_bands:  1 eigenvalues not converged
     c_bands:  1 eigenvalues not converged
     c_bands:  1 eigenvalues not converged
     c_bands:  1 eigenvalues not converged
     c_bands:  1 eigenvalues not converged
     c_bands:  1 eigenvalues not converged
     c_bands:  1 eigenvalues not converged
     c_bands:  1 eigenvalues not converged
     ethr =  1.00E-06,  avg # of iterations = 11.8

     total cpu time spent up to now is      268.3 secs

     total energy              =     -89.05849643 Ry
     estimated scf accuracy    <       0.60441195 Ry

     iteration #  2     ecut=    80.00 Ry     beta= 0.30
     Davidson diagonalization with overlap
     ethr =  3.56E-03,  avg # of iterations =  4.1

     total cpu time spent up to now is      294.6 secs

     total energy              =     -90.24019540 Ry
     estimated scf accuracy    <       0.45913427 Ry

     iteration #  3     ecut=    80.00 Ry     beta= 0.30
     Davidson diagonalization with overlap
     ethr =  2.70E-03,  avg # of iterations =  1.0

     total cpu time spent up to now is      308.7 secs

     total energy              =     -90.08728907 Ry
     estimated scf accuracy    <       0.22471783 Ry

     iteration #  4     ecut=    80.00 Ry     beta= 0.30
     Davidson diagonalization with overlap
     ethr =  1.32E-03,  avg # of iterations =  2.1

     total cpu time spent up to now is      328.7 secs

     total energy              =     -90.15900857 Ry
     estimated scf accuracy    <       0.02044565 Ry

     iteration #  5     ecut=    80.00 Ry     beta= 0.30
     Davidson diagonalization with overlap
     ethr =  1.20E-04,  avg # of iterations =  1.5

     total cpu time spent up to now is      343.3 secs

     total energy              =     -90.15910658 Ry
     estimated scf accuracy    <       0.00412893 Ry

     iteration #  6     ecut=    80.00 Ry     beta= 0.30
     Davidson diagonalization with overlap
     ethr =  2.43E-05,  avg # of iterations =  2.2

     total cpu time spent up to now is      358.6 secs

     total energy              =     -90.15846752 Ry
     estimated scf accuracy    <       0.00151597 Ry

     iteration #  7     ecut=    80.00 Ry     beta= 0.30
     Davidson diagonalization with overlap
     ethr =  8.92E-06,  avg # of iterations =  2.2

     total cpu time spent up to now is      375.8 secs

     total energy              =     -90.15865176 Ry
     estimated scf accuracy    <       0.00006687 Ry

     iteration #  8     ecut=    80.00 Ry     beta= 0.30
     Davidson diagonalization with overlap
     ethr =  3.93E-07,  avg # of iterations =  3.0

     total cpu time spent up to now is      397.1 secs

     total energy              =     -90.15867930 Ry
     estimated scf accuracy    <       0.00006953 Ry

     iteration #  9     ecut=    80.00 Ry     beta= 0.30
     Davidson diagonalization with overlap
     ethr =  3.93E-07,  avg # of iterations =  1.7

     total cpu time spent up to now is      412.2 secs

     total energy              =     -90.15868758 Ry
     estimated scf accuracy    <       0.00000255 Ry

     iteration # 10     ecut=    80.00 Ry     beta= 0.30
     Davidson diagonalization with overlap
     ethr =  1.50E-08,  avg # of iterations =  2.4

     total cpu time spent up to now is      430.7 secs

     total energy              =     -90.15868834 Ry
     estimated scf accuracy    <       0.00000005 Ry

     iteration # 11     ecut=    80.00 Ry     beta= 0.30
     Davidson diagonalization with overlap
     ethr =  3.00E-10,  avg # of iterations =  3.1

     total cpu time spent up to now is      448.4 secs

     total energy              =     -90.15868836 Ry
     estimated scf accuracy    <          2.4E-09 Ry

     iteration # 12     ecut=    80.00 Ry     beta= 0.30
     Davidson diagonalization with overlap
     ethr =  1.43E-11,  avg # of iterations =  2.2

     total cpu time spent up to now is      464.4 secs

     total energy              =     -90.15868836 Ry
     estimated scf accuracy    <          8.8E-10 Ry

     iteration # 13     ecut=    80.00 Ry     beta= 0.30
     Davidson diagonalization with overlap
     ethr =  5.18E-12,  avg # of iterations =  2.2

     total cpu time spent up to now is      482.3 secs

     End of self-consistent calculation

     Number of k-points >= 100: set verbosity='high' to print the bands.

     the Fermi energy is    12.5528 ev

!    total energy              =     -90.15868836 Ry
     estimated scf accuracy    <          6.6E-11 Ry
     smearing contrib. (-TS)   =       0.00000641 Ry
     internal energy E=F+TS    =     -90.15869477 Ry

     The total energy is F=E-TS. E is the sum of the following terms:
     one-electron contribution =      -6.07213222 Ry
     hartree contribution      =      10.78940898 Ry
     xc contribution           =     -22.68228436 Ry
     ewald contribution        =     -72.19368717 Ry

     convergence has been achieved in  13 iterations

     Forces acting on atoms (cartesian axes, Ry/au):

     atom    1 type  1   force =     0.00000000   -0.00000000   -0.00000000
     atom    2 type  2   force =     0.07259521   -0.02311665   -0.03035495
     atom    3 type  2   force =     0.02311665    0.03035496    0.07259521
     atom    4 type  2   force =     0.03035496    0.07259521   -0.02311665
     atom    5 type  2   force =    -0.07259521    0.02311665    0.03035495
     atom    6 type  2   force =    -0.02311665   -0.03035496   -0.07259521
     atom    7 type  2   force =    -0.03035495   -0.07259521    0.02311665

     Total force =     0.200886     Total SCF correction =     0.000002


     Computing stress (Cartesian axis) and pressure

          total   stress  (Ry/bohr**3)                   (kbar)     P=      502.70
   0.00341727  -0.00021765   0.00021765          502.70      -32.02       32.02
  -0.00021765   0.00341727  -0.00021765          -32.02      502.70      -32.02
   0.00021765  -0.00021765   0.00341727           32.02      -32.02      502.70

     Energy error            =      1.0E-01
     Gradient error          =      7.3E-02
     Cell gradient error     =      7.9E-03


     number of scf cycles    =   2
     number of bfgs steps    =   1

     enthalpy old            =     -87.4634360837 Ry
     enthalpy new            =     -87.5680089109 Ry

     CASE: enthalpy_new < enthalpy_old

     new trust radius        =       0.2801026720 bohr
     new conv_thr            =            1.0E-10 Ry

     new unit-cell volume =    172.94811 a.u.^3 (    25.62827 Ang^3 )
     density =      6.15237 g/cm^3

CELL_PARAMETERS (alat=  6.71000000)
   0.524215859   0.572372363   0.524215859
  -0.524215861   0.524215861   0.572372364
  -0.572372363  -0.524215856   0.524215857

ATOMIC_POSITIONS (crystal)
Y            -0.0000000002        0.0000000010       -0.0000000006
H             0.2934335105        0.4203429653       -0.0027605311
H             0.5796570347        0.0027605310        0.2934335106
H             0.0027605312        0.2934335104        0.4203429653
H             0.7065664895        0.5796570345        0.0027605313
H             0.4203429654       -0.0027605314        0.7065664897
H            -0.0027605311        0.7065664893        0.5796570348



     Writing output data file ./out/yh6.save/
     NEW-OLD atomic charge density approx. for the potential
     extrapolated charge   11.43474, renormalised to   17.00000

     total cpu time spent up to now is      487.9 secs

     Self-consistent Calculation

     iteration #  1     ecut=    80.00 Ry     beta= 0.30
     Davidson diagonalization with overlap
     c_bands:  1 eigenvalues not converged
     c_bands:  1 eigenvalues not converged
     c_bands:  1 eigenvalues not converged
     c_bands:  1 eigenvalues not converged
     c_bands:  1 eigenvalues not converged
     c_bands:  1 eigenvalues not converged
     c_bands:  1 eigenvalues not converged
     c_bands:  1 eigenvalues not converged
     c_bands:  1 eigenvalues not converged
     c_bands:  1 eigenvalues not converged
     c_bands:  1 eigenvalues not converged
     c_bands:  1 eigenvalues not converged
     ethr =  1.00E-06,  avg # of iterations = 11.7

     total cpu time spent up to now is      545.5 secs

     total energy              =     -87.78128732 Ry
     estimated scf accuracy    <       3.05623531 Ry

     iteration #  2     ecut=    80.00 Ry     beta= 0.30
     Davidson diagonalization with overlap
     ethr =  1.00E-02,  avg # of iterations =  2.7

     total cpu time spent up to now is      566.7 secs

     total energy              =     -89.94609632 Ry
     estimated scf accuracy    <       0.25644866 Ry

     iteration #  3     ecut=    80.00 Ry     beta= 0.30
     Davidson diagonalization with overlap
     ethr =  1.51E-03,  avg # of iterations =  2.2

     total cpu time spent up to now is      581.8 secs

     total energy              =     -89.89131426 Ry
     estimated scf accuracy    <       0.09515835 Ry

     iteration #  4     ecut=    80.00 Ry     beta= 0.30
     Davidson diagonalization with overlap
     ethr =  5.60E-04,  avg # of iterations =  2.2

     total cpu time spent up to now is      599.5 secs

     total energy              =     -89.91590427 Ry
     estimated scf accuracy    <       0.00534078 Ry

     iteration #  5     ecut=    80.00 Ry     beta= 0.30
     Davidson diagonalization with overlap
     ethr =  3.14E-05,  avg # of iterations =  3.5

     total cpu time spent up to now is      621.0 secs

     total energy              =     -89.91641836 Ry
     estimated scf accuracy    <       0.00405721 Ry

     iteration #  6     ecut=    80.00 Ry     beta= 0.30
     Davidson diagonalization with overlap
     ethr =  2.39E-05,  avg # of iterations =  2.1

     total cpu time spent up to now is      638.3 secs

     total energy              =     -89.91751423 Ry
     estimated scf accuracy    <       0.00015576 Ry

     iteration #  7     ecut=    80.00 Ry     beta= 0.30
     Davidson diagonalization with overlap
     ethr =  9.16E-07,  avg # of iterations =  2.8

     total cpu time spent up to now is      654.9 secs

     total energy              =     -89.91754468 Ry
     estimated scf accuracy    <       0.00000121 Ry

     iteration #  8     ecut=    80.00 Ry     beta= 0.30
     Davidson diagonalization with overlap
     ethr =  7.09E-09,  avg # of iterations =  2.3

     total cpu time spent up to now is      671.7 secs

     total energy              =     -89.91754508 Ry
     estimated scf accuracy    <       0.00000020 Ry

     iteration #  9     ecut=    80.00 Ry     beta= 0.30
     Davidson diagonalization with overlap
     ethr =  1.17E-09,  avg # of iterations =  1.4

     total cpu time spent up to now is      685.8 secs

     total energy              =     -89.91754509 Ry
     estimated scf accuracy    <       0.00000003 Ry

     iteration # 10     ecut=    80.00 Ry     beta= 0.30
     Davidson diagonalization with overlap
     ethr =  1.77E-10,  avg # of iterations =  1.8

     total cpu time spent up to now is      700.8 secs

     total energy              =     -89.91754509 Ry
     estimated scf accuracy    <          5.3E-09 Ry

     iteration # 11     ecut=    80.00 Ry     beta= 0.30
     Davidson diagonalization with overlap
     ethr =  3.12E-11,  avg # of iterations =  2.0

     total cpu time spent up to now is      717.4 secs

     total energy              =     -89.91754509 Ry
     estimated scf accuracy    <          2.3E-10 Ry

     iteration # 12     ecut=    80.00 Ry     beta= 0.30
     Davidson diagonalization with overlap
     ethr =  1.37E-12,  avg # of iterations =  2.5

     total cpu time spent up to now is      735.6 secs

     End of self-consistent calculation

     Number of k-points >= 100: set verbosity='high' to print the bands.

     the Fermi energy is    17.6580 ev

!    total energy              =     -89.91754509 Ry
     estimated scf accuracy    <          9.9E-11 Ry
     smearing contrib. (-TS)   =       0.00000379 Ry
     internal energy E=F+TS    =     -89.91754888 Ry

     The total energy is F=E-TS. E is the sum of the following terms:
     one-electron contribution =       4.84950833 Ry
     hartree contribution      =       8.28781309 Ry
     xc contribution           =     -23.30936699 Ry
     ewald contribution        =     -79.74550332 Ry

     convergence has been achieved in  12 iterations

     Forces acting on atoms (cartesian axes, Ry/au):

     atom    1 type  1   force =    -0.00000000   -0.00000000   -0.00000000
     atom    2 type  2   force =     0.06329546   -0.00429929   -0.00855210
     atom    3 type  2   force =     0.00429930    0.00855210    0.06329547
     atom    4 type  2   force =     0.00855210    0.06329547   -0.00429930
     atom    5 type  2   force =    -0.06329547    0.00429929    0.00855210
     atom    6 type  2   force =    -0.00429930   -0.00855210   -0.06329546
     atom    7 type  2   force =    -0.00855210   -0.06329547    0.00429930

     Total force =     0.156804     Total SCF correction =     0.000002


     Computing stress (Cartesian axis) and pressure

          total   stress  (Ry/bohr**3)                   (kbar)     P=     1301.57
   0.00884791  -0.00057415   0.00057415         1301.57      -84.46       84.46
  -0.00057415   0.00884791  -0.00057415          -84.46     1301.57      -84.46
   0.00057415  -0.00057415   0.00884791           84.46      -84.46     1301.57

     Energy error            =      4.0E-01
     Gradient error          =      6.3E-02
     Cell gradient error     =      2.4E-03


     number of scf cycles    =   3
     number of bfgs steps    =   2

     enthalpy old            =     -87.5680089109 Ry
     enthalpy new            =     -87.9659206914 Ry

     CASE: enthalpy_new < enthalpy_old

     new trust radius        =       0.1804525001 bohr
     new conv_thr            =            1.0E-10 Ry

     new unit-cell volume =    151.51442 a.u.^3 (    22.45212 Ang^3 )
     density =      7.02271 g/cm^3

CELL_PARAMETERS (alat=  6.71000000)
   0.501240984   0.539140483   0.501240983
  -0.501240985   0.501240987   0.539140480
  -0.539140481  -0.501240980   0.501240977

ATOMIC_POSITIONS (crystal)
Y            -0.0000000010        0.0000000014       -0.0000000012
H             0.3124741941        0.3927861627       -0.0052362371
H             0.6072138380        0.0052362370        0.3124741939
H             0.0052362375        0.3124741941        0.3927861616
H             0.6875258060        0.6072138372        0.0052362377
H             0.3927861625       -0.0052362377        0.6875258067
H            -0.0052362372        0.6875258053        0.6072138384



     Writing output data file ./out/yh6.save/
     NEW-OLD atomic charge density approx. for the potential
     extrapolated charge   14.59571, renormalised to   17.00000

     total cpu time spent up to now is      741.1 secs

     Self-consistent Calculation

     iteration #  1     ecut=    80.00 Ry     beta= 0.30
     Davidson diagonalization with overlap
     c_bands:  1 eigenvalues not converged
     c_bands:  1 eigenvalues not converged
     c_bands:  1 eigenvalues not converged
     c_bands:  1 eigenvalues not converged
     c_bands:  1 eigenvalues not converged
     c_bands:  1 eigenvalues not converged
     c_bands:  1 eigenvalues not converged
     c_bands:  1 eigenvalues not converged
     c_bands:  1 eigenvalues not converged
     ethr =  1.00E-06,  avg # of iterations = 10.5

     total cpu time spent up to now is      788.3 secs

     total energy              =     -89.54238144 Ry
     estimated scf accuracy    <       0.19171582 Ry

     iteration #  2     ecut=    80.00 Ry     beta= 0.30
     Davidson diagonalization with overlap
     ethr =  1.13E-03,  avg # of iterations =  2.8

     total cpu time spent up to now is      809.4 secs

     total energy              =     -89.74782187 Ry
     estimated scf accuracy    <       0.03342545 Ry

     iteration #  3     ecut=    80.00 Ry     beta= 0.30
     Davidson diagonalization with overlap
     ethr =  1.97E-04,  avg # of iterations =  2.4

     total cpu time spent up to now is      824.5 secs

     total energy              =     -89.73953537 Ry
     estimated scf accuracy    <       0.01390632 Ry

     iteration #  4     ecut=    80.00 Ry     beta= 0.30
     Davidson diagonalization with overlap
     ethr =  8.18E-05,  avg # of iterations =  2.1

     total cpu time spent up to now is      842.0 secs

     total energy              =     -89.74318859 Ry
     estimated scf accuracy    <       0.00071277 Ry

     iteration #  5     ecut=    80.00 Ry     beta= 0.30
     Davidson diagonalization with overlap
     ethr =  4.19E-06,  avg # of iterations =  3.5

     total cpu time spent up to now is      858.4 secs

     total energy              =     -89.74329548 Ry
     estimated scf accuracy    <       0.00001967 Ry

     iteration #  6     ecut=    80.00 Ry     beta= 0.30
     Davidson diagonalization with overlap
     ethr =  1.16E-07,  avg # of iterations =  1.8

     total cpu time spent up to now is      873.3 secs

     total energy              =     -89.74327684 Ry
     estimated scf accuracy    <       0.00003047 Ry

     iteration #  7     ecut=    80.00 Ry     beta= 0.30
     Davidson diagonalization with overlap
     ethr =  1.16E-07,  avg # of iterations =  2.0

     total cpu time spent up to now is      891.2 secs

     total energy              =     -89.74328492 Ry
     estimated scf accuracy    <       0.00000057 Ry

     iteration #  8     ecut=    80.00 Ry     beta= 0.30
     Davidson diagonalization with overlap
     ethr =  3.34E-09,  avg # of iterations =  1.2

     total cpu time spent up to now is      905.1 secs

     total energy              =     -89.74328480 Ry
     estimated scf accuracy    <       0.00000023 Ry

     iteration #  9     ecut=    80.00 Ry     beta= 0.30
     Davidson diagonalization with overlap
     ethr =  1.33E-09,  avg # of iterations =  2.0

     total cpu time spent up to now is      922.4 secs

     total energy              =     -89.74328486 Ry
     estimated scf accuracy    <          4.2E-09 Ry

     iteration # 10     ecut=    80.00 Ry     beta= 0.30
     Davidson diagonalization with overlap
     ethr =  2.49E-11,  avg # of iterations =  1.5

     total cpu time spent up to now is      936.8 secs

     total energy              =     -89.74328486 Ry
     estimated scf accuracy    <          9.9E-10 Ry

     iteration # 11     ecut=    80.00 Ry     beta= 0.30
     Davidson diagonalization with overlap
     ethr =  5.83E-12,  avg # of iterations =  2.0

     total cpu time spent up to now is      954.1 secs

     End of self-consistent calculation

     Number of k-points >= 100: set verbosity='high' to print the bands.

     the Fermi energy is    20.5144 ev

!    total energy              =     -89.74328487 Ry
     estimated scf accuracy    <          1.0E-11 Ry
     smearing contrib. (-TS)   =      -0.00000646 Ry
     internal energy E=F+TS    =     -89.74327841 Ry

     The total energy is F=E-TS. E is the sum of the following terms:
     one-electron contribution =      10.08441454 Ry
     hartree contribution      =       7.25238337 Ry
     xc contribution           =     -23.66114253 Ry
     ewald contribution        =     -83.41893378 Ry

     convergence has been achieved in  11 iterations

     Forces acting on atoms (cartesian axes, Ry/au):

     atom    1 type  1   force =     0.00000000   -0.00000000   -0.00000000
     atom    2 type  2   force =     0.04318429    0.01953194    0.01574112
     atom    3 type  2   force =    -0.01953194   -0.01574112    0.04318429
     atom    4 type  2   force =    -0.01574112    0.04318429    0.01953194
     atom    5 type  2   force =    -0.04318429   -0.01953194   -0.01574111
     atom    6 type  2   force =     0.01953194    0.01574111   -0.04318429
     atom    7 type  2   force =     0.01574112   -0.04318429   -0.01953194

     Total force =     0.122331     Total SCF correction =     0.000000


     Computing stress (Cartesian axis) and pressure

          total   stress  (Ry/bohr**3)                   (kbar)     P=     1960.35
   0.01332618  -0.00076533   0.00076533         1960.35     -112.58      112.58
  -0.00076533   0.01332618  -0.00076533         -112.58     1960.35     -112.58
   0.00076533  -0.00076533   0.01332618          112.58     -112.58     1960.35

     Energy error            =      6.8E-02
     Gradient error          =      4.3E-02
     Cell gradient error     =      2.0E-03


     number of scf cycles    =   4
     number of bfgs steps    =   3

     enthalpy old            =     -87.9659206914 Ry
     enthalpy new            =     -88.0335279111 Ry

     CASE: enthalpy_new < enthalpy_old

     new trust radius        =       0.1036319382 bohr
     new conv_thr            =            1.0E-10 Ry

     new unit-cell volume =    152.90450 a.u.^3 (    22.65811 Ang^3 )
     density =      6.95886 g/cm^3

CELL_PARAMETERS (alat=  6.71000000)
   0.502126490   0.515880011   0.502126486
  -0.502126491   0.502126495   0.515880005
  -0.515880007  -0.502126483   0.502126476

ATOMIC_POSITIONS (crystal)
Y            -0.0000000013        0.0000000013       -0.0000000013
H             0.3274159319        0.3794408956       -0.0072179761
H             0.6205591053        0.0072179759        0.3274159313
H             0.0072179767        0.3274159325        0.3794408938
H             0.6725840683        0.6205591046        0.0072179770
H             0.3794408953       -0.0072179769        0.6725840693
H            -0.0072179762        0.6725840669        0.6205591060



     Writing output data file ./out/yh6.save/
     NEW-OLD atomic charge density approx. for the potential
     extrapolated charge   17.15451, renormalised to   17.00000

     total cpu time spent up to now is      959.6 secs

     Self-consistent Calculation

     iteration #  1     ecut=    80.00 Ry     beta= 0.30
     Davidson diagonalization with overlap
     ethr =  1.00E-06,  avg # of iterations =  9.9

     total cpu time spent up to now is     1003.4 secs

     total energy              =     -89.79437260 Ry
     estimated scf accuracy    <       0.00507942 Ry

     iteration #  2     ecut=    80.00 Ry     beta= 0.30
     Davidson diagonalization with overlap
     ethr =  2.99E-05,  avg # of iterations =  2.0

     total cpu time spent up to now is     1020.5 secs

     total energy              =     -89.79530979 Ry
     estimated scf accuracy    <       0.00130695 Ry

     iteration #  3     ecut=    80.00 Ry     beta= 0.30
     Davidson diagonalization with overlap
     ethr =  7.69E-06,  avg # of iterations =  1.1

     total cpu time spent up to now is     1034.3 secs

     total energy              =     -89.79527796 Ry
     estimated scf accuracy    <       0.00041516 Ry

     iteration #  4     ecut=    80.00 Ry     beta= 0.30
     Davidson diagonalization with overlap
     ethr =  2.44E-06,  avg # of iterations =  1.6

     total cpu time spent up to now is     1048.6 secs

     total energy              =     -89.79529869 Ry
     estimated scf accuracy    <       0.00001717 Ry

     iteration #  5     ecut=    80.00 Ry     beta= 0.30
     Davidson diagonalization with overlap
     ethr =  1.01E-07,  avg # of iterations =  1.5

     total cpu time spent up to now is     1062.9 secs

     total energy              =     -89.79530011 Ry
     estimated scf accuracy    <       0.00000019 Ry

     iteration #  6     ecut=    80.00 Ry     beta= 0.30
     Davidson diagonalization with overlap
     ethr =  1.14E-09,  avg # of iterations =  2.6

     total cpu time spent up to now is     1080.4 secs

     total energy              =     -89.79530019 Ry
     estimated scf accuracy    <       0.00000004 Ry

     iteration #  7     ecut=    80.00 Ry     beta= 0.30
     Davidson diagonalization with overlap
     ethr =  2.43E-10,  avg # of iterations =  2.0

     total cpu time spent up to now is     1096.6 secs

     total energy              =     -89.79530020 Ry
     estimated scf accuracy    <          7.5E-09 Ry

     iteration #  8     ecut=    80.00 Ry     beta= 0.30
     Davidson diagonalization with overlap
     ethr =  4.42E-11,  avg # of iterations =  1.5

     total cpu time spent up to now is     1111.0 secs

     total energy              =     -89.79530021 Ry
     estimated scf accuracy    <          8.4E-10 Ry

     iteration #  9     ecut=    80.00 Ry     beta= 0.30
     Davidson diagonalization with overlap
     ethr =  4.95E-12,  avg # of iterations =  2.2

     total cpu time spent up to now is     1129.2 secs

     total energy              =     -89.79530021 Ry
     estimated scf accuracy    <          8.0E-10 Ry

     iteration # 10     ecut=    80.00 Ry     beta= 0.30
     Davidson diagonalization with overlap
     ethr =  4.70E-12,  avg # of iterations =  1.2

     total cpu time spent up to now is     1143.1 secs

     total energy              =     -89.79530021 Ry
     estimated scf accuracy    <          1.1E-10 Ry

     iteration # 11     ecut=    80.00 Ry     beta= 0.30
     Davidson diagonalization with overlap
     ethr =  6.68E-13,  avg # of iterations =  2.0

     total cpu time spent up to now is     1160.1 secs

     End of self-consistent calculation

     Number of k-points >= 100: set verbosity='high' to print the bands.

     the Fermi energy is    20.2707 ev

!    total energy              =     -89.79530021 Ry
     estimated scf accuracy    <          9.3E-13 Ry
     smearing contrib. (-TS)   =       0.00000530 Ry
     internal energy E=F+TS    =     -89.79530551 Ry

     The total energy is F=E-TS. E is the sum of the following terms:
     one-electron contribution =       9.46098916 Ry
     hartree contribution      =       7.44098536 Ry
     xc contribution           =     -23.64137397 Ry
     ewald contribution        =     -83.05590607 Ry

     convergence has been achieved in  11 iterations

     Forces acting on atoms (cartesian axes, Ry/au):

     atom    1 type  1   force =     0.00000000    0.00000000    0.00000000
     atom    2 type  2   force =     0.02979755    0.02871940    0.02324111
     atom    3 type  2   force =    -0.02871939   -0.02324111    0.02979755
     atom    4 type  2   force =    -0.02324111    0.02979756    0.02871940
     atom    5 type  2   force =    -0.02979755   -0.02871940   -0.02324111
     atom    6 type  2   force =     0.02871939    0.02324111   -0.02979756
     atom    7 type  2   force =     0.02324111   -0.02979756   -0.02871940

     Total force =     0.116263     Total SCF correction =     0.000000


     Computing stress (Cartesian axis) and pressure

          total   stress  (Ry/bohr**3)                   (kbar)     P=     1929.21
   0.01311453  -0.00001298   0.00001298         1929.21       -1.91        1.91
  -0.00001298   0.01311453  -0.00001298           -1.91     1929.21       -1.91
   0.00001298  -0.00001298   0.01311453            1.91       -1.91     1929.21

     Energy error            =      3.6E-02
     Gradient error          =      3.0E-02
     Cell gradient error     =      1.8E-03


     number of scf cycles    =   5
     number of bfgs steps    =   4

     enthalpy old            =     -88.0335279111 Ry
     enthalpy new            =     -88.0698569041 Ry

     CASE: enthalpy_new < enthalpy_old

     new trust radius        =       0.1666415025 bohr
     new conv_thr            =            1.0E-10 Ry

     new unit-cell volume =    160.76706 a.u.^3 (    23.82322 Ang^3 )
     density =      6.61853 g/cm^3

CELL_PARAMETERS (alat=  6.71000000)
   0.510494780   0.508620775   0.510494769
  -0.510494785   0.510494791   0.508620761
  -0.508620768  -0.510494769   0.510494753

ATOMIC_POSITIONS (crystal)
Y            -0.0000000015        0.0000000013       -0.0000000014
H             0.3544973559        0.3641086372       -0.0108288688
H             0.6358913647        0.0108288675        0.3544973553
H             0.0108288692        0.3544973599        0.3641086329
H             0.6455026443        0.6358913633        0.0108288702
H             0.3641086356       -0.0108288688        0.6455026451
H            -0.0108288681        0.6455026398        0.6358913667



     Writing output data file ./out/yh6.save/
     NEW-OLD atomic charge density approx. for the potential
     extrapolated charge   17.83121, renormalised to   17.00000

     total cpu time spent up to now is     1165.7 secs

     Self-consistent Calculation

     iteration #  1     ecut=    80.00 Ry     beta= 0.30
     Davidson diagonalization with overlap
     c_bands:  1 eigenvalues not converged
     c_bands:  1 eigenvalues not converged
     c_bands:  1 eigenvalues not converged
     c_bands:  1 eigenvalues not converged
     c_bands:  1 eigenvalues not converged
     c_bands:  1 eigenvalues not converged
     c_bands:  1 eigenvalues not converged
     c_bands:  1 eigenvalues not converged
     c_bands:  1 eigenvalues not converged
     c_bands:  1 eigenvalues not converged
     c_bands:  1 eigenvalues not converged
     c_bands:  1 eigenvalues not converged
     c_bands:  1 eigenvalues not converged
     c_bands:  1 eigenvalues not converged
     c_bands:  1 eigenvalues not converged
     c_bands:  1 eigenvalues not converged
     c_bands:  1 eigenvalues not converged
     c_bands:  1 eigenvalues not converged
     ethr =  1.00E-06,  avg # of iterations = 10.2

     total cpu time spent up to now is     1211.3 secs

     total energy              =     -89.89096001 Ry
     estimated scf accuracy    <       0.02185047 Ry

     iteration #  2     ecut=    80.00 Ry     beta= 0.30
     Davidson diagonalization with overlap
     ethr =  1.29E-04,  avg # of iterations =  3.1

     total cpu time spent up to now is     1232.7 secs

     total energy              =     -89.91314620 Ry
     estimated scf accuracy    <       0.00527247 Ry

     iteration #  3     ecut=    80.00 Ry     beta= 0.30
     Davidson diagonalization with overlap
     ethr =  3.10E-05,  avg # of iterations =  1.9

     total cpu time spent up to now is     1247.4 secs

     total energy              =     -89.91189117 Ry
     estimated scf accuracy    <       0.00268474 Ry

     iteration #  4     ecut=    80.00 Ry     beta= 0.30
     Davidson diagonalization with overlap
     ethr =  1.58E-05,  avg # of iterations =  2.2

     total cpu time spent up to now is     1267.1 secs

     total energy              =     -89.91250850 Ry
     estimated scf accuracy    <       0.00079367 Ry

     iteration #  5     ecut=    80.00 Ry     beta= 0.30
     Davidson diagonalization with overlap
     ethr =  4.67E-06,  avg # of iterations =  1.7

     total cpu time spent up to now is     1281.5 secs

     total energy              =     -89.91249738 Ry
     estimated scf accuracy    <       0.00015385 Ry

     iteration #  6     ecut=    80.00 Ry     beta= 0.30
     Davidson diagonalization with overlap
     ethr =  9.05E-07,  avg # of iterations =  1.9

     total cpu time spent up to now is     1296.3 secs

     total energy              =     -89.91248914 Ry
     estimated scf accuracy    <       0.00003761 Ry

     iteration #  7     ecut=    80.00 Ry     beta= 0.30
     Davidson diagonalization with overlap
     ethr =  2.21E-07,  avg # of iterations =  1.8

     total cpu time spent up to now is     1311.5 secs

     total energy              =     -89.91249114 Ry
     estimated scf accuracy    <       0.00000399 Ry

     iteration #  8     ecut=    80.00 Ry     beta= 0.30
     Davidson diagonalization with overlap
     ethr =  2.35E-08,  avg # of iterations =  2.0

     total cpu time spent up to now is     1328.2 secs

     total energy              =     -89.91249182 Ry
     estimated scf accuracy    <       0.00000016 Ry

     iteration #  9     ecut=    80.00 Ry     beta= 0.30
     Davidson diagonalization with overlap
     ethr =  9.31E-10,  avg # of iterations =  2.2

     total cpu time spent up to now is     1344.6 secs

     total energy              =     -89.91249184 Ry
     estimated scf accuracy    <       0.00000001 Ry

     iteration # 10     ecut=    80.00 Ry     beta= 0.30
     Davidson diagonalization with overlap
     ethr =  6.48E-11,  avg # of iterations =  2.5

     total cpu time spent up to now is     1363.1 secs

     total energy              =     -89.91249185 Ry
     estimated scf accuracy    <          3.9E-09 Ry

     iteration # 11     ecut=    80.00 Ry     beta= 0.30
     Davidson diagonalization with overlap
     ethr =  2.31E-11,  avg # of iterations =  1.4

     total cpu time spent up to now is     1377.4 secs

     total energy              =     -89.91249185 Ry
     estimated scf accuracy    <          3.0E-10 Ry

     iteration # 12     ecut=    80.00 Ry     beta= 0.30
     Davidson diagonalization with overlap
     ethr =  1.78E-12,  avg # of iterations =  2.1

     total cpu time spent up to now is     1395.5 secs

     End of self-consistent calculation

     Number of k-points >= 100: set verbosity='high' to print the bands.

     the Fermi energy is    19.1446 ev

!    total energy              =     -89.91249185 Ry
     estimated scf accuracy    <          3.9E-11 Ry
     smearing contrib. (-TS)   =       0.00003075 Ry
     internal energy E=F+TS    =     -89.91252260 Ry

     The total energy is F=E-TS. E is the sum of the following terms:
     one-electron contribution =       7.44190499 Ry
     hartree contribution      =       7.83335689 Ry
     xc contribution           =     -23.49607746 Ry
     ewald contribution        =     -81.69170701 Ry

     convergence has been achieved in  12 iterations

     Forces acting on atoms (cartesian axes, Ry/au):

     atom    1 type  1   force =    -0.00000000    0.00000000    0.00000000
     atom    2 type  2   force =    -0.00205054    0.01967489    0.01818720
     atom    3 type  2   force =    -0.01967489   -0.01818720   -0.00205055
     atom    4 type  2   force =    -0.01818720   -0.00205053    0.01967489
     atom    5 type  2   force =     0.00205054   -0.01967489   -0.01818720
     atom    6 type  2   force =     0.01967489    0.01818720    0.00205054
     atom    7 type  2   force =     0.01818720    0.00205053   -0.01967489

     Total force =     0.065822     Total SCF correction =     0.000001


     Computing stress (Cartesian axis) and pressure

          total   stress  (Ry/bohr**3)                   (kbar)     P=     1625.92
   0.01105281   0.00032799  -0.00032799         1625.92       48.25      -48.25
   0.00032799   0.01105281   0.00032799           48.25     1625.92       48.25
  -0.00032799   0.00032799   0.01105281          -48.25       48.25     1625.92

     Energy error            =      2.8E-02
     Gradient error          =      2.0E-02
     Cell gradient error     =      3.3E-04


     number of scf cycles    =   6
     number of bfgs steps    =   5

     enthalpy old            =     -88.0698569041 Ry
     enthalpy new            =     -88.0983238887 Ry

     CASE: enthalpy_new < enthalpy_old

     new trust radius        =       0.0314064077 bohr
     new conv_thr            =            1.0E-10 Ry

     new unit-cell volume =    160.75821 a.u.^3 (    23.82191 Ang^3 )
     density =      6.61889 g/cm^3

CELL_PARAMETERS (alat=  6.71000000)
   0.510486091   0.512698477   0.510486079
  -0.510486104   0.510486107   0.512698463
  -0.512698473  -0.510486079   0.510486063

ATOMIC_POSITIONS (crystal)
Y            -0.0000000015        0.0000000014       -0.0000000015
H             0.3577017190        0.3673880443       -0.0111649490
H             0.6326119576        0.0111649467        0.3577017181
H             0.0111649488        0.3577017254        0.3673880378
H             0.6422982810        0.6326119561        0.0111649506
H             0.3673880426       -0.0111649482        0.6422982822
H            -0.0111649475        0.6422982743        0.6326119618



     Writing output data file ./out/yh6.save/
     NEW-OLD atomic charge density approx. for the potential
     extrapolated charge   16.99906, renormalised to   17.00000

     total cpu time spent up to now is     1401.1 secs

     Self-consistent Calculation

     iteration #  1     ecut=    80.00 Ry     beta= 0.30
     Davidson diagonalization with overlap
     ethr =  1.00E-06,  avg # of iterations =  6.8

     total cpu time spent up to now is     1432.6 secs

     total energy              =     -89.91748094 Ry
     estimated scf accuracy    <       0.00043851 Ry

     iteration #  2     ecut=    80.00 Ry     beta= 0.30
     Davidson diagonalization with overlap
     ethr =  2.58E-06,  avg # of iterations =  1.0

     total cpu time spent up to now is     1446.5 secs

     total energy              =     -89.91742289 Ry
     estimated scf accuracy    <       0.00016090 Ry

     iteration #  3     ecut=    80.00 Ry     beta= 0.30
     Davidson diagonalization with overlap
     ethr =  9.46E-07,  avg # of iterations =  1.5

     total cpu time spent up to now is     1461.1 secs

     total energy              =     -89.91744012 Ry
     estimated scf accuracy    <       0.00000343 Ry

     iteration #  4     ecut=    80.00 Ry     beta= 0.30
     Davidson diagonalization with overlap
     ethr =  2.02E-08,  avg # of iterations =  2.0

     total cpu time spent up to now is     1478.2 secs

     total energy              =     -89.91744067 Ry
     estimated scf accuracy    <       0.00000015 Ry

     iteration #  5     ecut=    80.00 Ry     beta= 0.30
     Davidson diagonalization with overlap
     ethr =  9.03E-10,  avg # of iterations =  2.3

     total cpu time spent up to now is     1494.4 secs

     total energy              =     -89.91744071 Ry
     estimated scf accuracy    <       0.00000001 Ry

     iteration #  6     ecut=    80.00 Ry     beta= 0.30
     Davidson diagonalization with overlap
     ethr =  7.85E-11,  avg # of iterations =  2.1

     total cpu time spent up to now is     1511.2 secs

     total energy              =     -89.91744072 Ry
     estimated scf accuracy    <          9.8E-10 Ry

     iteration #  7     ecut=    80.00 Ry     beta= 0.30
     Davidson diagonalization with overlap
     ethr =  5.77E-12,  avg # of iterations =  1.8

     total cpu time spent up to now is     1526.6 secs

     total energy              =     -89.91744072 Ry
     estimated scf accuracy    <          1.5E-10 Ry

     iteration #  8     ecut=    80.00 Ry     beta= 0.30
     Davidson diagonalization with overlap
     ethr =  8.63E-13,  avg # of iterations =  2.0

     total cpu time spent up to now is     1544.0 secs

     End of self-consistent calculation

     Number of k-points >= 100: set verbosity='high' to print the bands.

     the Fermi energy is    19.2113 ev

!    total energy              =     -89.91744073 Ry
     estimated scf accuracy    <          2.0E-11 Ry
     smearing contrib. (-TS)   =       0.00005610 Ry
     internal energy E=F+TS    =     -89.91749683 Ry

     The total energy is F=E-TS. E is the sum of the following terms:
     one-electron contribution =       7.61837115 Ry
     hartree contribution      =       7.74703925 Ry
     xc contribution           =     -23.48687096 Ry
     ewald contribution        =     -81.79603626 Ry

     convergence has been achieved in   8 iterations

     Forces acting on atoms (cartesian axes, Ry/au):

     atom    1 type  1   force =    -0.00000000    0.00000000   -0.00000000
     atom    2 type  2   force =    -0.00234289    0.01358991    0.01224230
     atom    3 type  2   force =    -0.01358990   -0.01224230   -0.00234289
     atom    4 type  2   force =    -0.01224230   -0.00234287    0.01358991
     atom    5 type  2   force =     0.00234289   -0.01358991   -0.01224230
     atom    6 type  2   force =     0.01358991    0.01224230    0.00234289
     atom    7 type  2   force =     0.01224230    0.00234287   -0.01358991

     Total force =     0.045170     Total SCF correction =     0.000001


     Computing stress (Cartesian axis) and pressure

          total   stress  (Ry/bohr**3)                   (kbar)     P=     1604.08
   0.01090432   0.00009961  -0.00009961         1604.08       14.65      -14.65
   0.00009961   0.01090432   0.00009961           14.65     1604.08       14.65
  -0.00009961   0.00009961   0.01090432          -14.65       14.65     1604.08

     Energy error            =      5.0E-03
     Gradient error          =      1.4E-02
     Cell gradient error     =      3.8E-04


     number of scf cycles    =   7
     number of bfgs steps    =   6

     enthalpy old            =     -88.0983238887 Ry
     enthalpy new            =     -88.1033726620 Ry

     CASE: enthalpy_new < enthalpy_old

     new trust radius        =       0.0346847064 bohr
     new conv_thr            =            1.0E-10 Ry

     new unit-cell volume =    159.48413 a.u.^3 (    23.63311 Ang^3 )
     density =      6.67177 g/cm^3

CELL_PARAMETERS (alat=  6.71000000)
   0.509136340   0.512269533   0.509136328
  -0.509136359   0.509136363   0.512269518
  -0.512269528  -0.509136327   0.509136311

ATOMIC_POSITIONS (crystal)
Y            -0.0000000016        0.0000000016       -0.0000000016
H             0.3614284138        0.3707678228       -0.0116283479
H             0.6292321799        0.0116283440        0.3614284130
H             0.0116283469        0.3614284243        0.3707678118
H             0.6385715861        0.6292321776        0.0116283498
H             0.3707678201       -0.0116283458        0.6385715871
H            -0.0116283453        0.6385715756        0.6292321878



     Writing output data file ./out/yh6.save/
     NEW-OLD atomic charge density approx. for the potential
     extrapolated charge   16.86422, renormalised to   17.00000

     total cpu time spent up to now is     1549.6 secs

     Self-consistent Calculation

     iteration #  1     ecut=    80.00 Ry     beta= 0.30
     Davidson diagonalization with overlap
     ethr =  1.00E-06,  avg # of iterations =  6.1

     total cpu time spent up to now is     1580.4 secs

     total energy              =     -89.90598456 Ry
     estimated scf accuracy    <       0.00060380 Ry

     iteration #  2     ecut=    80.00 Ry     beta= 0.30
     Davidson diagonalization with overlap
     ethr =  3.55E-06,  avg # of iterations =  2.8

     total cpu time spent up to now is     1601.6 secs

     total energy              =     -89.90648279 Ry
     estimated scf accuracy    <       0.00027805 Ry

     iteration #  3     ecut=    80.00 Ry     beta= 0.30
     Davidson diagonalization with overlap
     ethr =  1.64E-06,  avg # of iterations =  1.1

     total cpu time spent up to now is     1615.7 secs

     total energy              =     -89.90641488 Ry
     estimated scf accuracy    <       0.00014131 Ry

     iteration #  4     ecut=    80.00 Ry     beta= 0.30
     Davidson diagonalization with overlap
     ethr =  8.31E-07,  avg # of iterations =  2.0

     total cpu time spent up to now is     1632.6 secs

     total energy              =     -89.90643900 Ry
     estimated scf accuracy    <       0.00001339 Ry

     iteration #  5     ecut=    80.00 Ry     beta= 0.30
     Davidson diagonalization with overlap
     ethr =  7.88E-08,  avg # of iterations =  2.0

     total cpu time spent up to now is     1648.6 secs

     total energy              =     -89.90644160 Ry
     estimated scf accuracy    <       0.00000028 Ry

     iteration #  6     ecut=    80.00 Ry     beta= 0.30
     Davidson diagonalization with overlap
     ethr =  1.66E-09,  avg # of iterations =  2.9

     total cpu time spent up to now is     1667.8 secs

     total energy              =     -89.90644122 Ry
     estimated scf accuracy    <       0.00000096 Ry

     iteration #  7     ecut=    80.00 Ry     beta= 0.30
     Davidson diagonalization with overlap
     ethr =  1.66E-09,  avg # of iterations =  2.3

     total cpu time spent up to now is     1685.9 secs

     total energy              =     -89.90644147 Ry
     estimated scf accuracy    <       0.00000002 Ry

     iteration #  8     ecut=    80.00 Ry     beta= 0.30
     Davidson diagonalization with overlap
     ethr =  9.77E-11,  avg # of iterations =  2.1

     total cpu time spent up to now is     1703.5 secs

     total energy              =     -89.90644148 Ry
     estimated scf accuracy    <          5.4E-09 Ry

     iteration #  9     ecut=    80.00 Ry     beta= 0.30
     Davidson diagonalization with overlap
     ethr =  3.19E-11,  avg # of iterations =  2.0

     total cpu time spent up to now is     1719.8 secs

     End of self-consistent calculation

     Number of k-points >= 100: set verbosity='high' to print the bands.

     the Fermi energy is    19.3191 ev

!    total energy              =     -89.90644148 Ry
     estimated scf accuracy    <          1.7E-11 Ry
     smearing contrib. (-TS)   =       0.00001692 Ry
     internal energy E=F+TS    =     -89.90645840 Ry

     The total energy is F=E-TS. E is the sum of the following terms:
     one-electron contribution =       8.03929446 Ry
     hartree contribution      =       7.63642147 Ry
     xc contribution           =     -23.49979983 Ry
     ewald contribution        =     -82.08237451 Ry

     convergence has been achieved in   9 iterations

     Forces acting on atoms (cartesian axes, Ry/au):

     atom    1 type  1   force =    -0.00000000    0.00000000   -0.00000000
     atom    2 type  2   force =    -0.00312135    0.00818578    0.00700975
     atom    3 type  2   force =    -0.00818578   -0.00700975   -0.00312135
     atom    4 type  2   force =    -0.00700975   -0.00312134    0.00818578
     atom    5 type  2   force =     0.00312135   -0.00818578   -0.00700975
     atom    6 type  2   force =     0.00818578    0.00700975    0.00312135
     atom    7 type  2   force =     0.00700975    0.00312134   -0.00818578

     Total force =     0.027483     Total SCF correction =     0.000001


     Computing stress (Cartesian axis) and pressure

          total   stress  (Ry/bohr**3)                   (kbar)     P=     1634.75
   0.01111283   0.00004710  -0.00004710         1634.75        6.93       -6.93
   0.00004710   0.01111283   0.00004711            6.93     1634.75        6.93
  -0.00004710   0.00004711   0.01111283           -6.93        6.93     1634.75

     Energy error            =      3.4E-03
     Gradient error          =      8.2E-03
     Cell gradient error     =      1.7E-04


     number of scf cycles    =   8
     number of bfgs steps    =   7

     enthalpy old            =     -88.1033726620 Ry
     enthalpy new            =     -88.1067506788 Ry

     CASE: enthalpy_new < enthalpy_old

     new trust radius        =       0.0500456008 bohr
     new conv_thr            =            8.2E-11 Ry

     new unit-cell volume =    158.27931 a.u.^3 (    23.45457 Ang^3 )
     density =      6.72255 g/cm^3

CELL_PARAMETERS (alat=  6.71000000)
   0.507857120   0.512562235   0.507857108
  -0.507857151   0.507857157   0.512562217
  -0.512562228  -0.507857101   0.507857082

ATOMIC_POSITIONS (crystal)
Y            -0.0000000020        0.0000000020       -0.0000000020
H             0.3640065285        0.3780735728       -0.0121766049
H             0.6219264321        0.0121765978        0.3640065279
H             0.0121766028        0.3640065460        0.3780735533
H             0.6359934713        0.6219264274        0.0121766073
H             0.3780735678       -0.0121766001        0.6359934719
H            -0.0121766005        0.6359934541        0.6219264465



     Writing output data file ./out/yh6.save/
     NEW-OLD atomic charge density approx. for the potential
     extrapolated charge   16.87063, renormalised to   17.00000

     total cpu time spent up to now is     1725.4 secs

     Self-consistent Calculation

     iteration #  1     ecut=    80.00 Ry     beta= 0.30
     Davidson diagonalization with overlap
     c_bands:  1 eigenvalues not converged
     c_bands:  1 eigenvalues not converged
     c_bands:  1 eigenvalues not converged
     ethr =  1.00E-06,  avg # of iterations =  6.7

     total cpu time spent up to now is     1757.3 secs

     total energy              =     -89.89448370 Ry
     estimated scf accuracy    <       0.00095129 Ry

     iteration #  2     ecut=    80.00 Ry     beta= 0.30
     Davidson diagonalization with overlap
     ethr =  5.60E-06,  avg # of iterations =  2.2

     total cpu time spent up to now is     1777.5 secs

     total energy              =     -89.89489205 Ry
     estimated scf accuracy    <       0.00044493 Ry

     iteration #  3     ecut=    80.00 Ry     beta= 0.30
     Davidson diagonalization with overlap
     ethr =  2.62E-06,  avg # of iterations =  1.1

     total cpu time spent up to now is     1791.1 secs

     total energy              =     -89.89481611 Ry
     estimated scf accuracy    <       0.00020332 Ry

     iteration #  4     ecut=    80.00 Ry     beta= 0.30
     Davidson diagonalization with overlap
     ethr =  1.20E-06,  avg # of iterations =  2.0

     total cpu time spent up to now is     1807.1 secs

     total energy              =     -89.89484016 Ry
     estimated scf accuracy    <       0.00001367 Ry

     iteration #  5     ecut=    80.00 Ry     beta= 0.30
     Davidson diagonalization with overlap
     ethr =  8.04E-08,  avg # of iterations =  2.0

     total cpu time spent up to now is     1824.3 secs

     total energy              =     -89.89484369 Ry
     estimated scf accuracy    <       0.00000069 Ry

     iteration #  6     ecut=    80.00 Ry     beta= 0.30
     Davidson diagonalization with overlap
     ethr =  4.09E-09,  avg # of iterations =  1.7

     total cpu time spent up to now is     1838.9 secs

     total energy              =     -89.89484316 Ry
     estimated scf accuracy    <       0.00000092 Ry

     iteration #  7     ecut=    80.00 Ry     beta= 0.30
     Davidson diagonalization with overlap
     ethr =  4.09E-09,  avg # of iterations =  2.0

     total cpu time spent up to now is     1855.9 secs

     total energy              =     -89.89484335 Ry
     estimated scf accuracy    <          4.1E-09 Ry

     iteration #  8     ecut=    80.00 Ry     beta= 0.30
     Davidson diagonalization with overlap
     ethr =  2.42E-11,  avg # of iterations =  2.2

     total cpu time spent up to now is     1873.5 secs

     total energy              =     -89.89484335 Ry
     estimated scf accuracy    <          8.3E-09 Ry

     iteration #  9     ecut=    80.00 Ry     beta= 0.30
     Davidson diagonalization with overlap
     ethr =  2.42E-11,  avg # of iterations =  2.3

     total cpu time spent up to now is     1891.7 secs

     total energy              =     -89.89484335 Ry
     estimated scf accuracy    <          3.5E-10 Ry

     iteration # 10     ecut=    80.00 Ry     beta= 0.30
     Davidson diagonalization with overlap
     ethr =  2.07E-12,  avg # of iterations =  2.0

     total cpu time spent up to now is     1909.3 secs

     End of self-consistent calculation

     Number of k-points >= 100: set verbosity='high' to print the bands.

     the Fermi energy is    19.4352 ev

!    total energy              =     -89.89484335 Ry
     estimated scf accuracy    <          3.3E-11 Ry
     smearing contrib. (-TS)   =      -0.00001483 Ry
     internal energy E=F+TS    =     -89.89482852 Ry

     The total energy is F=E-TS. E is the sum of the following terms:
     one-electron contribution =       8.47410775 Ry
     hartree contribution      =       7.51537510 Ry
     xc contribution           =     -23.50982769 Ry
     ewald contribution        =     -82.37448368 Ry

     convergence has been achieved in  10 iterations

     Forces acting on atoms (cartesian axes, Ry/au):

     atom    1 type  1   force =    -0.00000000    0.00000000   -0.00000000
     atom    2 type  2   force =     0.00005870    0.00177992    0.00031855
     atom    3 type  2   force =    -0.00177991   -0.00031855    0.00005870
     atom    4 type  2   force =    -0.00031855    0.00005871    0.00177992
     atom    5 type  2   force =    -0.00005870   -0.00177992   -0.00031855
     atom    6 type  2   force =     0.00177991    0.00031855   -0.00005870
     atom    7 type  2   force =     0.00031855   -0.00005871   -0.00177992

     Total force =     0.004431     Total SCF correction =     0.000000


     Computing stress (Cartesian axis) and pressure

          total   stress  (Ry/bohr**3)                   (kbar)     P=     1660.09
   0.01128508  -0.00001139   0.00001139         1660.09       -1.68        1.68
  -0.00001139   0.01128508  -0.00001139           -1.68     1660.09       -1.68
   0.00001139  -0.00001139   0.01128508            1.68       -1.68     1660.09

     Energy error            =      2.0E-03
     Gradient error          =      1.8E-03
     Cell gradient error     =      1.1E-05


     number of scf cycles    =   9
     number of bfgs steps    =   8

     enthalpy old            =     -88.1067506788 Ry
     enthalpy new            =     -88.1087483098 Ry

     CASE: enthalpy_new < enthalpy_old

     new trust radius        =       0.0084044317 bohr
     new conv_thr            =            1.8E-11 Ry

     new unit-cell volume =    158.21298 a.u.^3 (    23.44474 Ang^3 )
     density =      6.72537 g/cm^3

CELL_PARAMETERS (alat=  6.71000000)
   0.507784642   0.512148663   0.507784630
  -0.507784681   0.507784690   0.512148643
  -0.512148653  -0.507784614   0.507784593

ATOMIC_POSITIONS (crystal)
Y            -0.0000000023        0.0000000023       -0.0000000023
H             0.3648404099        0.3789173974       -0.0125443694
H             0.6210826089        0.0125443610        0.3648404089
H             0.0125443673        0.3648404303        0.3789173735
H             0.6351595899        0.6210826028        0.0125443721
H             0.3789173909       -0.0125443637        0.6351595909
H            -0.0125443647        0.6351595698        0.6210826262



     Writing output data file ./out/yh6.save/
     NEW-OLD atomic charge density approx. for the potential
     extrapolated charge   16.99287, renormalised to   17.00000

     total cpu time spent up to now is     1914.8 secs

     Self-consistent Calculation

     iteration #  1     ecut=    80.00 Ry     beta= 0.30
     Davidson diagonalization with overlap
     ethr =  1.00E-06,  avg # of iterations =  2.5

     total cpu time spent up to now is     1934.7 secs

     total energy              =     -89.89414198 Ry
     estimated scf accuracy    <       0.00001765 Ry

     iteration #  2     ecut=    80.00 Ry     beta= 0.30
     Davidson diagonalization with overlap
     ethr =  1.04E-07,  avg # of iterations =  1.5

     total cpu time spent up to now is     1949.0 secs

     total energy              =     -89.89414138 Ry
     estimated scf accuracy    <       0.00000858 Ry

     iteration #  3     ecut=    80.00 Ry     beta= 0.30
     Davidson diagonalization with overlap
     ethr =  5.05E-08,  avg # of iterations =  1.0

     total cpu time spent up to now is     1962.6 secs

     total energy              =     -89.89414167 Ry
     estimated scf accuracy    <       0.00000091 Ry

     iteration #  4     ecut=    80.00 Ry     beta= 0.30
     Davidson diagonalization with overlap
     ethr =  5.34E-09,  avg # of iterations =  1.5

     total cpu time spent up to now is     1976.8 secs

     total energy              =     -89.89414166 Ry
     estimated scf accuracy    <       0.00000013 Ry

     iteration #  5     ecut=    80.00 Ry     beta= 0.30
     Davidson diagonalization with overlap
     ethr =  7.72E-10,  avg # of iterations =  2.0

     total cpu time spent up to now is     1994.0 secs

     total energy              =     -89.89414170 Ry
     estimated scf accuracy    <       0.00000002 Ry

     iteration #  6     ecut=    80.00 Ry     beta= 0.30
     Davidson diagonalization with overlap
     ethr =  9.04E-11,  avg # of iterations =  1.0

     total cpu time spent up to now is     2007.8 secs

     total energy              =     -89.89414169 Ry
     estimated scf accuracy    <          5.5E-09 Ry

     iteration #  7     ecut=    80.00 Ry     beta= 0.30
     Davidson diagonalization with overlap
     ethr =  3.24E-11,  avg # of iterations =  2.0

     total cpu time spent up to now is     2025.8 secs

     total energy              =     -89.89414169 Ry
     estimated scf accuracy    <          1.5E-09 Ry

     iteration #  8     ecut=    80.00 Ry     beta= 0.30
     Davidson diagonalization with overlap
     ethr =  8.62E-12,  avg # of iterations =  2.0

     total cpu time spent up to now is     2042.7 secs

     End of self-consistent calculation

     Number of k-points >= 100: set verbosity='high' to print the bands.

     the Fermi energy is    19.4351 ev

!    total energy              =     -89.89414169 Ry
     estimated scf accuracy    <          3.8E-12 Ry
     smearing contrib. (-TS)   =      -0.00000747 Ry
     internal energy E=F+TS    =     -89.89413422 Ry

     The total energy is F=E-TS. E is the sum of the following terms:
     one-electron contribution =       8.50265920 Ry
     hartree contribution      =       7.50691325 Ry
     xc contribution           =     -23.50958642 Ry
     ewald contribution        =     -82.39412025 Ry

     convergence has been achieved in   8 iterations

     Forces acting on atoms (cartesian axes, Ry/au):

     atom    1 type  1   force =    -0.00000000    0.00000000   -0.00000000
     atom    2 type  2   force =    -0.00028073    0.00066629   -0.00073970
     atom    3 type  2   force =    -0.00066628    0.00073970   -0.00028073
     atom    4 type  2   force =     0.00073970   -0.00028071    0.00066629
     atom    5 type  2   force =     0.00028073   -0.00066629    0.00073970
     atom    6 type  2   force =     0.00066628   -0.00073970    0.00028073
     atom    7 type  2   force =    -0.00073970    0.00028071   -0.00066629

     Total force =     0.002534     Total SCF correction =     0.000000


     Computing stress (Cartesian axis) and pressure

          total   stress  (Ry/bohr**3)                   (kbar)     P=     1661.17
   0.01129239  -0.00000323   0.00000323         1661.17       -0.47        0.47
  -0.00000323   0.01129239  -0.00000323           -0.47     1661.17       -0.47
   0.00000323  -0.00000323   0.01129239            0.47       -0.47     1661.17

     Energy error            =      4.7E-05
     Gradient error          =      7.4E-04
     Cell gradient error     =      7.9E-06


     number of scf cycles    =  10
     number of bfgs steps    =   9

     enthalpy old            =     -88.1087483098 Ry
     enthalpy new            =     -88.1087951374 Ry

     CASE: enthalpy_new < enthalpy_old

     new trust radius        =       0.0016825836 bohr
     new conv_thr            =            7.4E-12 Ry

     new unit-cell volume =    158.24709 a.u.^3 (    23.44980 Ang^3 )
     density =      6.72392 g/cm^3

CELL_PARAMETERS (alat=  6.71000000)
   0.507820866   0.512121688   0.507820853
  -0.507820913   0.507820925   0.512121665
  -0.512121676  -0.507820828   0.507820804

ATOMIC_POSITIONS (crystal)
Y            -0.0000000026        0.0000000026       -0.0000000026
H             0.3646775840        0.3792507500       -0.0127997574
H             0.6207492574        0.0127997479        0.3646775823
H             0.0127997554        0.3646776082        0.3792507209
H             0.6353224159        0.6207492502        0.0127997605
H             0.3792507424       -0.0127997509        0.6353224175
H            -0.0127997524        0.6353223920        0.6207492789



     Writing output data file ./out/yh6.save/
     NEW-OLD atomic charge density approx. for the potential
     extrapolated charge   17.00366, renormalised to   17.00000

     total cpu time spent up to now is     2048.3 secs

     Self-consistent Calculation

     iteration #  1     ecut=    80.00 Ry     beta= 0.30
     Davidson diagonalization with overlap
     ethr =  1.00E-06,  avg # of iterations =  2.0

     Threshold (ethr) on eigenvalues was too large:
     Diagonalizing with lowered threshold

     Davidson diagonalization with overlap
     ethr =  3.38E-09,  avg # of iterations =  1.9

     total cpu time spent up to now is     2080.6 secs

     total energy              =     -89.89453417 Ry
     estimated scf accuracy    <       0.00000063 Ry

     iteration #  2     ecut=    80.00 Ry     beta= 0.30
     Davidson diagonalization with overlap
     ethr =  3.69E-09,  avg # of iterations =  2.2

     total cpu time spent up to now is     2098.5 secs

     total energy              =     -89.89453461 Ry
     estimated scf accuracy    <       0.00000015 Ry

     iteration #  3     ecut=    80.00 Ry     beta= 0.30
     Davidson diagonalization with overlap
     ethr =  8.97E-10,  avg # of iterations =  1.0

     total cpu time spent up to now is     2112.1 secs

     total energy              =     -89.89453460 Ry
     estimated scf accuracy    <       0.00000008 Ry

     iteration #  4     ecut=    80.00 Ry     beta= 0.30
     Davidson diagonalization with overlap
     ethr =  4.48E-10,  avg # of iterations =  2.0

     total cpu time spent up to now is     2128.7 secs

     total energy              =     -89.89453461 Ry
     estimated scf accuracy    <          9.1E-09 Ry

     iteration #  5     ecut=    80.00 Ry     beta= 0.30
     Davidson diagonalization with overlap
     ethr =  5.36E-11,  avg # of iterations =  2.0

     total cpu time spent up to now is     2145.1 secs

     total energy              =     -89.89453461 Ry
     estimated scf accuracy    <          6.7E-11 Ry

     iteration #  6     ecut=    80.00 Ry     beta= 0.30
     Davidson diagonalization with overlap
     ethr =  3.91E-13,  avg # of iterations =  2.8

     total cpu time spent up to now is     2163.1 secs

     total energy              =     -89.89453461 Ry
     estimated scf accuracy    <          4.8E-11 Ry

     iteration #  7     ecut=    80.00 Ry     beta= 0.30
     Davidson diagonalization with overlap
     ethr =  2.81E-13,  avg # of iterations =  2.0

     total cpu time spent up to now is     2179.8 secs

     total energy              =     -89.89453461 Ry
     estimated scf accuracy    <          7.5E-12 Ry

     iteration #  8     ecut=    80.00 Ry     beta= 0.30
     Davidson diagonalization with overlap
     ethr =  1.00E-13,  avg # of iterations =  1.7

     total cpu time spent up to now is     2194.7 secs

     End of self-consistent calculation

     Number of k-points >= 100: set verbosity='high' to print the bands.

     the Fermi energy is    19.4300 ev

!    total energy              =     -89.89453461 Ry
     estimated scf accuracy    <          5.4E-13 Ry
     smearing contrib. (-TS)   =      -0.00000774 Ry
     internal energy E=F+TS    =     -89.89452687 Ry

     The total energy is F=E-TS. E is the sum of the following terms:
     one-electron contribution =       8.49504231 Ry
     hartree contribution      =       7.50814009 Ry
     xc contribution           =     -23.50888650 Ry
     ewald contribution        =     -82.38882277 Ry

     convergence has been achieved in   8 iterations

     Forces acting on atoms (cartesian axes, Ry/au):

     atom    1 type  1   force =    -0.00000000    0.00000000   -0.00000000
     atom    2 type  2   force =    -0.00010985    0.00057081   -0.00088149
     atom    3 type  2   force =    -0.00057080    0.00088149   -0.00010986
     atom    4 type  2   force =     0.00088149   -0.00010982    0.00057081
     atom    5 type  2   force =     0.00010985   -0.00057081    0.00088149
     atom    6 type  2   force =     0.00057080   -0.00088149    0.00010986
     atom    7 type  2   force =    -0.00088149    0.00010982   -0.00057081

     Total force =     0.002586     Total SCF correction =     0.000000


     Computing stress (Cartesian axis) and pressure

          total   stress  (Ry/bohr**3)                   (kbar)     P=     1659.85
   0.01128345  -0.00000209   0.00000209         1659.85       -0.31        0.31
  -0.00000209   0.01128345  -0.00000209           -0.31     1659.85       -0.31
   0.00000209  -0.00000209   0.01128345            0.31       -0.31     1659.85

     Energy error            =      7.9E-06
     Gradient error          =      8.8E-04
     Cell gradient error     =      2.1E-06


     number of scf cycles    =  11
     number of bfgs steps    =  10

     enthalpy old            =     -88.1087951374 Ry
     enthalpy new            =     -88.1088030802 Ry

     CASE: enthalpy_new < enthalpy_old

     new trust radius        =       0.0018511235 bohr
     new conv_thr            =            7.9E-12 Ry

     new unit-cell volume =    158.26971 a.u.^3 (    23.45315 Ang^3 )
     density =      6.72296 g/cm^3

CELL_PARAMETERS (alat=  6.71000000)
   0.507844703   0.512062399   0.507844688
  -0.507844763   0.507844777   0.512062372
  -0.512062384  -0.507844649   0.507844621

ATOMIC_POSITIONS (crystal)
Y            -0.0000000031        0.0000000031       -0.0000000031
H             0.3644689857        0.3795664325       -0.0131504674
H             0.6204335763        0.0131504560        0.3644689829
H             0.0131504654        0.3644690157        0.3795663954
H             0.6355310140        0.6204335677        0.0131504710
H             0.3795664234       -0.0131504595        0.6355310169
H            -0.0131504619        0.6355309846        0.6204336043



     Writing output data file ./out/yh6.save/
     NEW-OLD atomic charge density approx. for the potential
     extrapolated charge   17.00243, renormalised to   17.00000

     total cpu time spent up to now is     2200.2 secs

     Self-consistent Calculation

     iteration #  1     ecut=    80.00 Ry     beta= 0.30
     Davidson diagonalization with overlap
     ethr =  1.00E-06,  avg # of iterations =  2.0

     Threshold (ethr) on eigenvalues was too large:
     Diagonalizing with lowered threshold

     Davidson diagonalization with overlap
     ethr =  1.65E-09,  avg # of iterations =  2.1

     total cpu time spent up to now is     2233.2 secs

     total energy              =     -89.89479942 Ry
     estimated scf accuracy    <       0.00000031 Ry

     iteration #  2     ecut=    80.00 Ry     beta= 0.30
     Davidson diagonalization with overlap
     ethr =  1.83E-09,  avg # of iterations =  2.1

     total cpu time spent up to now is     2251.4 secs

     total energy              =     -89.89479962 Ry
     estimated scf accuracy    <       0.00000009 Ry

     iteration #  3     ecut=    80.00 Ry     beta= 0.30
     Davidson diagonalization with overlap
     ethr =  5.05E-10,  avg # of iterations =  1.0

     total cpu time spent up to now is     2265.4 secs

[...]
     density =      6.90178 g/cm^3

CELL_PARAMETERS (alat=  6.71000000)
   0.523690392   0.476627858   0.508829960
  -0.482693492   0.502259837   0.524344967
  -0.508837413  -0.503858156   0.497517633

ATOMIC_POSITIONS (crystal)
Y            -0.0729825311       -0.0199585760       -0.0100632292
H             0.1770227233        0.4800347709       -0.2600836211
H             0.4270074271        0.2299611426        0.2399677257
H             0.1770505232        0.2300613340        0.4899222366
H             0.6770178026        0.4800641033        0.2399270586
H             0.4270171742       -0.2700504113        0.7400083148
H            -0.3229199227        0.7299916317        0.4899775987
End final coordinates



     Writing output data file ./out/yh6.save/

     Final scf calculation at the relaxed structure.
     The G-vectors are recalculated for the final unit cell
     Results may differ from those at the preceding step.

     Parallelization info
     --------------------
     sticks:   dense  smooth     PW     G-vecs:    dense   smooth      PW
     Min         294     116     40                 8399     2109     434
     Max         295     117     41                 8401     2111     435
     Sum        2061     817    281                58799    14771    3043



     bravais-lattice index     =            3
     lattice parameter (alat)  =       6.7100  a.u.
     unit-cell volume          =     154.1692 (a.u.)^3
     number of atoms/cell      =            7
     number of atomic types    =            2
     number of electrons       =        17.00
     number of Kohn-Sham states=           13
     kinetic-energy cutoff     =      80.0000  Ry
     charge density cutoff     =     800.0000  Ry
     scf convergence threshold =      1.0E-12
     mixing beta               =       0.3000
     number of iterations used =            8  plain     mixing
     press convergence thresh. =      5.0E-01
     Exchange-correlation= PBE
                           (   1   4   3   4   0   0   0)

     celldm(1)=   6.710000  celldm(2)=   0.000000  celldm(3)=   0.000000
     celldm(4)=   0.000000  celldm(5)=   0.000000  celldm(6)=   0.000000

     crystal axes: (cart. coord. in units of alat)
               a(1) = (   0.523690   0.476628   0.508830 )  
               a(2) = (  -0.482693   0.502260   0.524345 )  
               a(3) = (  -0.508837  -0.503858   0.497518 )  

     reciprocal axes: (cart. coord. in units 2 pi/alat)
               b(1) = (  1.007394 -0.052239  0.977411 )  
               b(2) = ( -0.967086  1.017934  0.041817 )  
               b(3) = ( -0.011067 -1.019397  0.966272 )  


     PseudoPot. # 1 for Y  read from file:
     ./pseudo/Y.pbe-spn-rrkjus_psl.1.0.0.UPF
     MD5 check sum: 5fe32e6a006803c2ec2edff47948a3c8
     Pseudo is Ultrasoft + core correction, Zval = 11.0
     Generated using &quot;atomic&quot; code by A. Dal Corso  v.6.2.2
     Using radial grid of 1223 points,  6 beta functions with: 
                l(1) =   0
                l(2) =   0
                l(3) =   1
                l(4) =   1
                l(5) =   2
                l(6) =   2
     Q(r) pseudized with 0 coefficients 


     PseudoPot. # 2 for H  read from file:
     ./pseudo/H.pbe-rrkjus_psl.1.0.0.UPF
     MD5 check sum: 3f4114867bd07edc7f1424d066fc1888
     Pseudo is Ultrasoft, Zval =  1.0
     Generated using &quot;atomic&quot; code by A. Dal Corso  v.6.3MaX
     Using radial grid of  929 points,  2 beta functions with: 
                l(1) =   0
                l(2) =   0
     Q(r) pseudized with 0 coefficients 


     atomic species   valence    mass     pseudopotential
        Y             11.00    88.90590     Y ( 1.00)
        H              1.00     1.00800     H ( 1.00)

     No symmetry found



   Cartesian axes

     site n.     atom                  positions (alat units)
         1           Y   tau(   1) = (  -0.0234658  -0.0397395  -0.0526075  )
         2           H   tau(   2) = (  -0.0066643   0.4565214   0.2123821  )
         3           H   tau(   3) = (  -0.0094856   0.1981142   0.4572413  )
         4           H   tau(   4) = (  -0.2676202  -0.0469135   0.4544651  )
         5           H   tau(   5) = (   0.0007400   0.4429133   0.7155741  )
         6           H   tau(   6) = (  -0.0225675  -0.3049664   0.4438467  )
         7           H   tau(   7) = (  -0.7707912  -0.0341464   0.4622286  )

     number of k points=  2052  Methfessel-Paxton smearing, width (Ry)=  0.0100

     Number of k-points >= 100: set verbosity='high' to print them.

     Dense  grid:    58799 G-vectors     FFT dimensions: (  54,  54,  54)

     Smooth grid:    14771 G-vectors     FFT dimensions: (  36,  36,  36)

     Estimated max dynamical RAM per process >     148.93 MB

     Estimated total dynamical RAM >       1.02 GB

     Initial potential from superposition of free atoms

     starting charge   16.99586, renormalised to   17.00000
     Starting wfcs are   19 randomized atomic wfcs

     total cpu time spent up to now is     8824.5 secs

     Self-consistent Calculation

     iteration #  1     ecut=    80.00 Ry     beta= 0.30
     Davidson diagonalization with overlap
     c_bands:  1 eigenvalues not converged
     c_bands:  1 eigenvalues not converged
     c_bands:  1 eigenvalues not converged
     c_bands:  1 eigenvalues not converged
     c_bands:  1 eigenvalues not converged
     c_bands:  1 eigenvalues not converged
     c_bands:  1 eigenvalues not converged
     c_bands:  1 eigenvalues not converged
     c_bands:  1 eigenvalues not converged
     c_bands:  1 eigenvalues not converged
     c_bands:  1 eigenvalues not converged
     c_bands:  1 eigenvalues not converged
     c_bands:  1 eigenvalues not converged
     c_bands:  1 eigenvalues not converged
     c_bands:  1 eigenvalues not converged
     c_bands:  1 eigenvalues not converged
     c_bands:  1 eigenvalues not converged
     c_bands:  1 eigenvalues not converged
     c_bands:  1 eigenvalues not converged
     c_bands:  1 eigenvalues not converged
     c_bands:  1 eigenvalues not converged
     c_bands:  1 eigenvalues not converged
     c_bands:  1 eigenvalues not converged
     c_bands:  1 eigenvalues not converged
     c_bands:  1 eigenvalues not converged
     c_bands:  1 eigenvalues not converged
     c_bands:  1 eigenvalues not converged
     c_bands:  1 eigenvalues not converged
     c_bands:  1 eigenvalues not converged
     c_bands:  1 eigenvalues not converged
     c_bands:  1 eigenvalues not converged
     c_bands:  1 eigenvalues not converged
     c_bands:  1 eigenvalues not converged
     c_bands:  1 eigenvalues not converged
     c_bands:  1 eigenvalues not converged
     c_bands:  1 eigenvalues not converged
     c_bands:  1 eigenvalues not converged
     c_bands:  1 eigenvalues not converged
     c_bands:  1 eigenvalues not converged
     c_bands:  1 eigenvalues not converged
     c_bands:  1 eigenvalues not converged
     c_bands:  1 eigenvalues not converged
     c_bands:  1 eigenvalues not converged
     c_bands:  1 eigenvalues not converged
     c_bands:  1 eigenvalues not converged
     c_bands:  1 eigenvalues not converged
     c_bands:  1 eigenvalues not converged
     c_bands:  1 eigenvalues not converged
     c_bands:  1 eigenvalues not converged
     c_bands:  1 eigenvalues not converged
     c_bands:  1 eigenvalues not converged
     c_bands:  1 eigenvalues not converged
     c_bands:  1 eigenvalues not converged
     c_bands:  1 eigenvalues not converged
     c_bands:  1 eigenvalues not converged
     c_bands:  1 eigenvalues not converged
     c_bands:  1 eigenvalues not converged
     c_bands:  1 eigenvalues not converged
     c_bands:  1 eigenvalues not converged
     c_bands:  1 eigenvalues not converged
     c_bands:  1 eigenvalues not converged
     c_bands:  1 eigenvalues not converged
     c_bands:  1 eigenvalues not converged
     c_bands:  1 eigenvalues not converged
     c_bands:  1 eigenvalues not converged
     c_bands:  1 eigenvalues not converged
     c_bands:  1 eigenvalues not converged
     c_bands:  1 eigenvalues not converged
     c_bands:  1 eigenvalues not converged
     c_bands:  1 eigenvalues not converged
     c_bands:  1 eigenvalues not converged
     c_bands:  1 eigenvalues not converged
     c_bands:  1 eigenvalues not converged
     c_bands:  1 eigenvalues not converged
     c_bands:  1 eigenvalues not converged
     c_bands:  1 eigenvalues not converged
     c_bands:  1 eigenvalues not converged
     c_bands:  1 eigenvalues not converged
     c_bands:  1 eigenvalues not converged
     c_bands:  1 eigenvalues not converged
     c_bands:  1 eigenvalues not converged
     c_bands:  1 eigenvalues not converged
     c_bands:  1 eigenvalues not converged
     c_bands:  1 eigenvalues not converged
     c_bands:  1 eigenvalues not converged
     c_bands:  1 eigenvalues not converged
     c_bands:  1 eigenvalues not converged
     c_bands:  1 eigenvalues not converged
     c_bands:  1 eigenvalues not converged
     c_bands:  1 eigenvalues not converged
     c_bands:  1 eigenvalues not converged
     c_bands:  1 eigenvalues not converged
     c_bands:  1 eigenvalues not converged
     c_bands:  1 eigenvalues not converged
     c_bands:  1 eigenvalues not converged
     c_bands:  1 eigenvalues not converged
     c_bands:  1 eigenvalues not converged
     c_bands:  1 eigenvalues not converged
     c_bands:  1 eigenvalues not converged
     c_bands:  1 eigenvalues not converged
     c_bands:  1 eigenvalues not converged
     c_bands:  1 eigenvalues not converged
     c_bands:  1 eigenvalues not converged
     c_bands:  1 eigenvalues not converged
     c_bands:  1 eigenvalues not converged
     c_bands:  1 eigenvalues not converged
     c_bands:  1 eigenvalues not converged
     c_bands:  1 eigenvalues not converged
     c_bands:  1 eigenvalues not converged
     c_bands:  1 eigenvalues not converged
     c_bands:  1 eigenvalues not converged
     c_bands:  1 eigenvalues not converged
     c_bands:  1 eigenvalues not converged
     c_bands:  1 eigenvalues not converged
     c_bands:  1 eigenvalues not converged
     c_bands:  1 eigenvalues not converged
     c_bands:  1 eigenvalues not converged
     c_bands:  1 eigenvalues not converged
     c_bands:  1 eigenvalues not converged
     c_bands:  1 eigenvalues not converged
     c_bands:  1 eigenvalues not converged
     c_bands:  1 eigenvalues not converged
     c_bands:  1 eigenvalues not converged
     c_bands:  1 eigenvalues not converged
     c_bands:  1 eigenvalues not converged
     c_bands:  1 eigenvalues not converged
     c_bands:  1 eigenvalues not converged
     c_bands:  1 eigenvalues not converged
     c_bands:  1 eigenvalues not converged
     c_bands:  1 eigenvalues not converged
     c_bands:  1 eigenvalues not converged
     c_bands:  1 eigenvalues not converged
     c_bands:  1 eigenvalues not converged
     c_bands:  1 eigenvalues not converged
     ethr =  1.00E-06,  avg # of iterations = 13.6

     total cpu time spent up to now is     8877.0 secs

     total energy              =     -89.94858988 Ry
     estimated scf accuracy    <       0.20086807 Ry

     iteration #  2     ecut=    80.00 Ry     beta= 0.30
     Davidson diagonalization with overlap
     ethr =  1.18E-03,  avg # of iterations =  1.0

     total cpu time spent up to now is     8891.2 secs

     total energy              =     -89.93449535 Ry
     estimated scf accuracy    <       0.04976354 Ry

     iteration #  3     ecut=    80.00 Ry     beta= 0.30
     Davidson diagonalization with overlap
     ethr =  2.93E-04,  avg # of iterations =  2.4

     total cpu time spent up to now is     8908.8 secs

     total energy              =     -89.94289173 Ry
     estimated scf accuracy    <       0.00213153 Ry

     iteration #  4     ecut=    80.00 Ry     beta= 0.30
     Davidson diagonalization with overlap
     ethr =  1.25E-05,  avg # of iterations =  2.6

     total cpu time spent up to now is     8929.7 secs

     total energy              =     -89.94297981 Ry
     estimated scf accuracy    <       0.00133618 Ry

     iteration #  5     ecut=    80.00 Ry     beta= 0.30
     Davidson diagonalization with overlap
     ethr =  7.86E-06,  avg # of iterations =  2.3

     total cpu time spent up to now is     8945.7 secs

     total energy              =     -89.94317035 Ry
     estimated scf accuracy    <       0.00003682 Ry

     iteration #  6     ecut=    80.00 Ry     beta= 0.30
     Davidson diagonalization with overlap
     ethr =  2.17E-07,  avg # of iterations =  2.4

     total cpu time spent up to now is     8963.8 secs

     total energy              =     -89.94316237 Ry
     estimated scf accuracy    <       0.00002068 Ry

     iteration #  7     ecut=    80.00 Ry     beta= 0.30
     Davidson diagonalization with overlap
     ethr =  1.22E-07,  avg # of iterations =  2.1

     total cpu time spent up to now is     8981.4 secs

     total energy              =     -89.94316902 Ry
     estimated scf accuracy    <       0.00000064 Ry

     iteration #  8     ecut=    80.00 Ry     beta= 0.30
     Davidson diagonalization with overlap
     ethr =  3.74E-09,  avg # of iterations =  2.3

     total cpu time spent up to now is     9000.5 secs

     total energy              =     -89.94316754 Ry
     estimated scf accuracy    <       0.00000275 Ry

     iteration #  9     ecut=    80.00 Ry     beta= 0.30
     Davidson diagonalization with overlap
     ethr =  3.74E-09,  avg # of iterations =  2.1

     total cpu time spent up to now is     9019.1 secs

     total energy              =     -89.94316800 Ry
     estimated scf accuracy    <       0.00000003 Ry

     iteration # 10     ecut=    80.00 Ry     beta= 0.30
     Davidson diagonalization with overlap
     ethr =  1.76E-10,  avg # of iterations =  2.1

     total cpu time spent up to now is     9036.0 secs

     total energy              =     -89.94316800 Ry
     estimated scf accuracy    <          3.2E-09 Ry

     iteration # 11     ecut=    80.00 Ry     beta= 0.30
     Davidson diagonalization with overlap
     ethr =  1.90E-11,  avg # of iterations =  1.5

     total cpu time spent up to now is     9050.8 secs

     total energy              =     -89.94316800 Ry
     estimated scf accuracy    <          1.3E-09 Ry

     iteration # 12     ecut=    80.00 Ry     beta= 0.30
     Davidson diagonalization with overlap
     ethr =  7.86E-12,  avg # of iterations =  1.6

     total cpu time spent up to now is     9065.6 secs

     total energy              =     -89.94316800 Ry
     estimated scf accuracy    <          1.8E-10 Ry

     iteration # 13     ecut=    80.00 Ry     beta= 0.30
     Davidson diagonalization with overlap
     ethr =  1.03E-12,  avg # of iterations =  2.0

     total cpu time spent up to now is     9081.5 secs

     total energy              =     -89.94316800 Ry
     estimated scf accuracy    <          5.0E-11 Ry

     iteration # 14     ecut=    80.00 Ry     beta= 0.30
     Davidson diagonalization with overlap
     ethr =  2.97E-13,  avg # of iterations =  1.0

     total cpu time spent up to now is     9095.6 secs

     total energy              =     -89.94316800 Ry
     estimated scf accuracy    <          7.7E-11 Ry

     iteration # 15     ecut=    80.00 Ry     beta= 0.30
     Davidson diagonalization with overlap
     ethr =  2.97E-13,  avg # of iterations =  2.0

     total cpu time spent up to now is     9111.8 secs

     total energy              =     -89.94316800 Ry
     estimated scf accuracy    <          8.6E-12 Ry

     iteration # 16     ecut=    80.00 Ry     beta= 0.30
     Davidson diagonalization with overlap
     ethr =  1.00E-13,  avg # of iterations =  1.2

     total cpu time spent up to now is     9126.4 secs

     End of self-consistent calculation

     Number of k-points >= 100: set verbosity='high' to print the bands.

     the Fermi energy is    19.6381 ev

!    total energy              =     -89.94316800 Ry
     estimated scf accuracy    <          4.3E-13 Ry
     smearing contrib. (-TS)   =       0.00004194 Ry
     internal energy E=F+TS    =     -89.94320994 Ry

     The total energy is F=E-TS. E is the sum of the following terms:
     one-electron contribution =      10.64802706 Ry
     hartree contribution      =       6.75553395 Ry
     xc contribution           =     -23.46704659 Ry
     ewald contribution        =     -83.87972436 Ry

     convergence has been achieved in  16 iterations

     Forces acting on atoms (cartesian axes, Ry/au):

     atom    1 type  1   force =     0.00003453    0.00001227    0.00000350
     atom    2 type  2   force =    -0.00000732   -0.00002133    0.00001119
     atom    3 type  2   force =    -0.00000252    0.00003204    0.00003420
     atom    4 type  2   force =     0.00000098   -0.00005372   -0.00002263
     atom    5 type  2   force =     0.00000939   -0.00003216   -0.00000912
     atom    6 type  2   force =    -0.00001337    0.00005375    0.00001286
     atom    7 type  2   force =    -0.00002169    0.00000914   -0.00002999

     Total force =     0.000116     Total SCF correction =     0.000000


     Computing stress (Cartesian axis) and pressure

          total   stress  (Ry/bohr**3)                   (kbar)     P=     1659.95
   0.01128376  -0.00000133  -0.00000036         1659.90       -0.20       -0.05
  -0.00000133   0.01128469   0.00000026           -0.20     1660.04        0.04
  -0.00000036   0.00000026   0.01128392           -0.05        0.04     1659.92


     Writing output data file ./out/yh6.save/

     init_run     :     17.03s CPU     17.88s WALL (       2 calls)
     electrons    :   8427.21s CPU   8812.36s WALL (      54 calls)
     update_pot   :     25.46s CPU     25.56s WALL (      52 calls)
     forces       :     97.61s CPU    100.63s WALL (      54 calls)
     stress       :    166.58s CPU    168.19s WALL (      54 calls)

     Called by init_run:
     wfcinit      :     15.95s CPU     16.76s WALL (       2 calls)
     potinit      :      0.29s CPU      0.29s WALL (       2 calls)
     hinit0       :      0.70s CPU      0.72s WALL (       2 calls)

     Called by electrons:
     c_bands      :   7267.76s CPU   7593.02s WALL (     493 calls)
     sum_band     :   1148.35s CPU   1207.61s WALL (     493 calls)
     v_of_rho     :      3.61s CPU      3.94s WALL (     533 calls)
     newd         :      7.78s CPU      7.93s WALL (     533 calls)
     mix_rho      :      0.42s CPU      0.49s WALL (     493 calls)

     Called by c_bands:
     init_us_2    :    107.64s CPU    112.64s WALL ( 2248992 calls)
     cegterg      :   7072.49s CPU   7389.29s WALL ( 1011636 calls)

     Called by *egterg:
     cdiaghg      :    374.74s CPU    391.49s WALL ( 3174120 calls)
     h_psi        :   5328.19s CPU   5573.27s WALL ( 3313656 calls)
     s_psi        :    261.15s CPU    273.57s WALL ( 3313656 calls)
     g_psi        :     30.66s CPU     31.70s WALL ( 2297916 calls)

     Called by h_psi:
     h_psi:calbec :    378.85s CPU    398.87s WALL ( 3313656 calls)
     vloc_psi     :   4640.92s CPU   4851.16s WALL ( 3313656 calls)
     add_vuspsi   :    285.48s CPU    299.62s WALL ( 3313656 calls)

     General routines
     calbec       :    600.76s CPU    631.90s WALL ( 4879332 calls)
     fft          :      4.06s CPU      4.57s WALL (    8237 calls)
     ffts         :      0.18s CPU      0.20s WALL (    1026 calls)
     fftw         :   5093.54s CPU   5329.97s WALL (80340974 calls)
     interpolate  :      0.28s CPU      0.34s WALL (     533 calls)

     Parallel routines
     fft_scatt_xy :    394.67s CPU    411.66s WALL (80350237 calls)
     fft_scatt_yz :   2039.87s CPU   2139.30s WALL (80350237 calls)

     PWSCF        :      2h25m CPU      2h32m WALL


   This run was terminated on:   8:32:10  31May2026            

=------------------------------------------------------------------------------=
   JOB DONE.
=------------------------------------------------------------------------------=
