
     Program PWSCF v.6.7MaX starts on 31May2026 at 11: 6:49 

     This program is part of the open-source Quantum ESPRESSO suite
     for quantum simulation of materials; please cite
         "P. Giannozzi et al., J. Phys.:Condens. Matter 21 395502 (2009);
         "P. Giannozzi et al., J. Phys.:Condens. Matter 29 465901 (2017);
          URL http://www.quantum-espresso.org", 
     in publications or presentations arising from this work. More details at
     http://www.quantum-espresso.org/quote

     Parallel version (MPI), running on     7 processors

     MPI processes distributed on     1 nodes
     R & G space division:  proc/nbgrp/npool/nimage =       7
     Reading input from scf.in

     Current dimensions of program PWSCF are:
     Max number of different atomic species (ntypx) = 10
     Max number of k-points (npk) =  40000
     Max angular momentum in pseudopotentials (lmaxx) =  3
     file Y.pbe-spn-rrkjus_psl.1.0.0.UPF: wavefunction(s)  4S renormalized

     Subspace diagonalization in iterative solution of the eigenvalue problem:
     a serial algorithm will be used


     Parallelization info
     --------------------
     sticks:   dense  smooth     PW     G-vecs:    dense   smooth      PW
     Min         294     116     40                 8399     2109     434
     Max         295     117     41                 8401     2111     435
     Sum        2061     817    281                58799    14771    3043



     bravais-lattice index     =            0
     lattice parameter (alat)  =       5.8509  a.u.
     unit-cell volume          =     154.1693 (a.u.)^3
     number of atoms/cell      =            7
     number of atomic types    =            2
     number of electrons       =        17.00
     number of Kohn-Sham states=           13
     kinetic-energy cutoff     =      80.0000  Ry
     charge density cutoff     =     800.0000  Ry
     scf convergence threshold =      1.0E-10
     mixing beta               =       0.3000
     number of iterations used =            8  plain     mixing
     Exchange-correlation= PBE
                           (   1   4   3   4   0   0   0)

     celldm(1)=   5.850924  celldm(2)=   0.000000  celldm(3)=   0.000000
     celldm(4)=   0.000000  celldm(5)=   0.000000  celldm(6)=   0.000000

     crystal axes: (cart. coord. in units of alat)
               a(1) = (   0.600583   0.546610   0.583539 )  
               a(2) = (  -0.553567   0.576004   0.601332 )  
               a(3) = (  -0.583549  -0.577839   0.570568 )  

     reciprocal axes: (cart. coord. in units 2 pi/alat)
               b(1) = (  0.878418 -0.045549  0.852273 )  
               b(2) = ( -0.843271  0.887609  0.036464 )  
               b(3) = ( -0.009649 -0.888883  0.842561 )  


     PseudoPot. # 1 for Y  read from file:
     ./pseudo/Y.pbe-spn-rrkjus_psl.1.0.0.UPF
     MD5 check sum: 5fe32e6a006803c2ec2edff47948a3c8
     Pseudo is Ultrasoft + core correction, Zval = 11.0
     Generated using &quot;atomic&quot; code by A. Dal Corso  v.6.2.2
     Using radial grid of 1223 points,  6 beta functions with: 
                l(1) =   0
                l(2) =   0
                l(3) =   1
                l(4) =   1
                l(5) =   2
                l(6) =   2
     Q(r) pseudized with 0 coefficients 


     PseudoPot. # 2 for H  read from file:
     ./pseudo/H.pbe-rrkjus_psl.1.0.0.UPF
     MD5 check sum: 3f4114867bd07edc7f1424d066fc1888
     Pseudo is Ultrasoft, Zval =  1.0
     Generated using &quot;atomic&quot; code by A. Dal Corso  v.6.3MaX
     Using radial grid of  929 points,  2 beta functions with: 
                l(1) =   0
                l(2) =   0
     Q(r) pseudized with 0 coefficients 


     atomic species   valence    mass     pseudopotential
        Y             11.00    88.90590     Y ( 1.00)
        H              1.00     1.00800     H ( 1.00)

     No symmetry found


                                    s                        frac. trans.

      isym =  1     identity                                     

 cryst.   s( 1) = (     1          0          0      )
                  (     0          1          0      )
                  (     0          0          1      )

 cart.    s( 1) = (  1.0000000  0.0000000 -0.0000000 )
                  (  0.0000000  1.0000000 -0.0000000 )
                  (  0.0000000  0.0000000  1.0000000 )


   Cartesian axes

     site n.     atom                  positions (alat units)
         1           Y   tau(   1) = (  -0.0269113  -0.0455743  -0.0603317  )
         2           H   tau(   2) = (  -0.0076430   0.5235507   0.2435645  )
         3           H   tau(   3) = (  -0.0108784   0.2272024   0.5243766  )
         4           H   tau(   4) = (  -0.3069144  -0.0538022   0.5211933  )
         5           H   tau(   5) = (   0.0008486   0.5079443   0.8206392  )
         6           H   tau(   6) = (  -0.0258809  -0.3497438   0.5090166  )
         7           H   tau(   7) = (  -0.8839651  -0.0391610   0.5300967  )

   Crystallographic axes

     site n.     atom                  positions (cryst. coord.)
         1           Y   tau(   1) = ( -0.0729825 -0.0199586 -0.0100632  )
         2           H   tau(   2) = (  0.1770227  0.4800348 -0.2600836  )
         3           H   tau(   3) = (  0.4270074  0.2299611  0.2399677  )
         4           H   tau(   4) = (  0.1770505  0.2300613  0.4899222  )
         5           H   tau(   5) = (  0.6770178  0.4800641  0.2399271  )
         6           H   tau(   6) = (  0.4270172 -0.2700504  0.7400083  )
         7           H   tau(   7) = ( -0.3229199  0.7299916  0.4899776  )

     number of k points=  2052  Methfessel-Paxton smearing, width (Ry)=  0.0100
                       cart. coord. in units 2pi/alat
        k(    1) = (   0.0000000   0.0000000   0.0000000), wk =   0.0004883
        k(    2) = (  -0.0006031  -0.0555552   0.0526600), wk =   0.0009766
        k(    3) = (  -0.0012061  -0.1111104   0.1053201), wk =   0.0009766
        k(    4) = (  -0.0018092  -0.1666655   0.1579801), wk =   0.0009766
        k(    5) = (  -0.0024123  -0.2222207   0.2106401), wk =   0.0009766
        k(    6) = (  -0.0030153  -0.2777759   0.2633002), wk =   0.0009766
        k(    7) = (  -0.0036184  -0.3333311   0.3159602), wk =   0.0009766
        k(    8) = (  -0.0042215  -0.3888862   0.3686203), wk =   0.0009766
        k(    9) = (   0.0048245   0.4444414  -0.4212803), wk =   0.0004883
        k(   10) = (  -0.0527044   0.0554756   0.0022790), wk =   0.0009766
        k(   11) = (  -0.0533075  -0.0000796   0.0549390), wk =   0.0009766
        k(   12) = (  -0.0539106  -0.0556348   0.1075991), wk =   0.0009766
        k(   13) = (  -0.0545136  -0.1111900   0.1602591), wk =   0.0009766
        k(   14) = (  -0.0551167  -0.1667451   0.2129191), wk =   0.0009766
        k(   15) = (  -0.0557198  -0.2223003   0.2655792), wk =   0.0009766
        k(   16) = (  -0.0563228  -0.2778555   0.3182392), wk =   0.0009766
        k(   17) = (  -0.0569259  -0.3334107   0.3708993), wk =   0.0009766
        k(   18) = (  -0.0478799   0.4999170  -0.4190013), wk =   0.0009766
        k(   19) = (  -0.0484829   0.4443618  -0.3663413), wk =   0.0009766
        k(   20) = (  -0.0490860   0.3888066  -0.3136812), wk =   0.0009766
        k(   21) = (  -0.0496891   0.3332515  -0.2610212), wk =   0.0009766
        k(   22) = (  -0.0502921   0.2776963  -0.2083612), wk =   0.0009766
        k(   23) = (  -0.0508952   0.2221411  -0.1557011), wk =   0.0009766
        k(   24) = (  -0.0514983   0.1665859  -0.1030411), wk =   0.0009766
        k(   25) = (  -0.0521014   0.1110307  -0.0503810), wk =   0.0009766
        k(   26) = (  -0.1054088   0.1109511   0.0045580), wk =   0.0009766
        k(   27) = (  -0.1060119   0.0553960   0.0572180), wk =   0.0009766
        k(   28) = (  -0.1066150  -0.0001592   0.1098781), wk =   0.0009766
        k(   29) = (  -0.1072180  -0.0557144   0.1625381), wk =   0.0009766
        k(   30) = (  -0.1078211  -0.1112696   0.2151981), wk =   0.0009766
        k(   31) = (  -0.1084242  -0.1668248   0.2678582), wk =   0.0009766
        k(   32) = (  -0.1090272  -0.2223799   0.3205182), wk =   0.0009766
        k(   33) = (  -0.1096303  -0.2779351   0.3731782), wk =   0.0009766
        k(   34) = (  -0.1005843   0.5553926  -0.4167223), wk =   0.0009766
        k(   35) = (  -0.1011874   0.4998374  -0.3640623), wk =   0.0009766
        k(   36) = (  -0.1017904   0.4442822  -0.3114022), wk =   0.0009766
        k(   37) = (  -0.1023935   0.3887270  -0.2587422), wk =   0.0009766
        k(   38) = (  -0.1029966   0.3331718  -0.2060822), wk =   0.0009766
        k(   39) = (  -0.1035996   0.2776167  -0.1534221), wk =   0.0009766
        k(   40) = (  -0.1042027   0.2220615  -0.1007621), wk =   0.0009766
        k(   41) = (  -0.1048058   0.1665063  -0.0481021), wk =   0.0009766
        k(   42) = (  -0.1581133   0.1664267   0.0068370), wk =   0.0009766
        k(   43) = (  -0.1587163   0.1108715   0.0594970), wk =   0.0009766
        k(   44) = (  -0.1593194   0.0553163   0.1121570), wk =   0.0009766
        k(   45) = (  -0.1599225  -0.0002388   0.1648171), wk =   0.0009766
        k(   46) = (  -0.1605255  -0.0557940   0.2174771), wk =   0.0009766
        k(   47) = (  -0.1611286  -0.1113492   0.2701372), wk =   0.0009766
        k(   48) = (  -0.1617317  -0.1669044   0.3227972), wk =   0.0009766
        k(   49) = (  -0.1623347  -0.2224595   0.3754572), wk =   0.0009766
        k(   50) = (  -0.1532887   0.6108681  -0.4144433), wk =   0.0009766
        k(   51) = (  -0.1538918   0.5553129  -0.3617833), wk =   0.0009766
        k(   52) = (  -0.1544948   0.4997578  -0.3091232), wk =   0.0009766
        k(   53) = (  -0.1550979   0.4442026  -0.2564632), wk =   0.0009766
        k(   54) = (  -0.1557010   0.3886474  -0.2038032), wk =   0.0009766
        k(   55) = (  -0.1563041   0.3330922  -0.1511431), wk =   0.0009766
        k(   56) = (  -0.1569071   0.2775371  -0.0984831), wk =   0.0009766
        k(   57) = (  -0.1575102   0.2219819  -0.0458231), wk =   0.0009766
        k(   58) = (  -0.2108177   0.2219023   0.0091160), wk =   0.0009766
        k(   59) = (  -0.2114207   0.1663471   0.0617760), wk =   0.0009766
        k(   60) = (  -0.2120238   0.1107919   0.1144360), wk =   0.0009766
        k(   61) = (  -0.2126269   0.0552367   0.1670961), wk =   0.0009766
        k(   62) = (  -0.2132300  -0.0003184   0.2197561), wk =   0.0009766
        k(   63) = (  -0.2138330  -0.0558736   0.2724161), wk =   0.0009766
        k(   64) = (  -0.2144361  -0.1114288   0.3250762), wk =   0.0009766
        k(   65) = (  -0.2150392  -0.1669840   0.3777362), wk =   0.0009766
        k(   66) = (  -0.2059931   0.6663437  -0.4121643), wk =   0.0009766
        k(   67) = (  -0.2065962   0.6107885  -0.3595043), wk =   0.0009766
        k(   68) = (  -0.2071993   0.5552333  -0.3068443), wk =   0.0009766
        k(   69) = (  -0.2078023   0.4996782  -0.2541842), wk =   0.0009766
        k(   70) = (  -0.2084054   0.4441230  -0.2015242), wk =   0.0009766
        k(   71) = (  -0.2090085   0.3885678  -0.1488641), wk =   0.0009766
        k(   72) = (  -0.2096115   0.3330126  -0.0962041), wk =   0.0009766
        k(   73) = (  -0.2102146   0.2774574  -0.0435441), wk =   0.0009766
        k(   74) = (  -0.2635221   0.2773778   0.0113950), wk =   0.0009766
        k(   75) = (  -0.2641252   0.2218227   0.0640550), wk =   0.0009766
        k(   76) = (  -0.2647282   0.1662675   0.1167150), wk =   0.0009766
        k(   77) = (  -0.2653313   0.1107123   0.1693751), wk =   0.0009766
        k(   78) = (  -0.2659344   0.0551571   0.2220351), wk =   0.0009766
        k(   79) = (  -0.2665374  -0.0003981   0.2746951), wk =   0.0009766
        k(   80) = (  -0.2671405  -0.0559532   0.3273552), wk =   0.0009766
        k(   81) = (  -0.2677436  -0.1115084   0.3800152), wk =   0.0009766
        k(   82) = (  -0.2586975   0.7218193  -0.4098853), wk =   0.0009766
        k(   83) = (  -0.2593006   0.6662641  -0.3572253), wk =   0.0009766
        k(   84) = (  -0.2599037   0.6107089  -0.3045653), wk =   0.0009766
        k(   85) = (  -0.2605068   0.5551537  -0.2519052), wk =   0.0009766
        k(   86) = (  -0.2611098   0.4995986  -0.1992452), wk =   0.0009766
        k(   87) = (  -0.2617129   0.4440434  -0.1465852), wk =   0.0009766
        k(   88) = (  -0.2623160   0.3884882  -0.0939251), wk =   0.0009766
        k(   89) = (  -0.2629190   0.3329330  -0.0412651), wk =   0.0009766
        k(   90) = (  -0.3162265   0.3328534   0.0136739), wk =   0.0009766
        k(   91) = (  -0.3168296   0.2772982   0.0663340), wk =   0.0009766
        k(   92) = (  -0.3174327   0.2217430   0.1189940), wk =   0.0009766
        k(   93) = (  -0.3180357   0.1661879   0.1716541), wk =   0.0009766
        k(   94) = (  -0.3186388   0.1106327   0.2243141), wk =   0.0009766
        k(   95) = (  -0.3192419   0.0550775   0.2769741), wk =   0.0009766
        k(   96) = (  -0.3198449  -0.0004777   0.3296342), wk =   0.0009766
        k(   97) = (  -0.3204480  -0.0560328   0.3822942), wk =   0.0009766
        k(   98) = (  -0.3114020   0.7772948  -0.4076064), wk =   0.0009766
        k(   99) = (  -0.3120050   0.7217397  -0.3549463), wk =   0.0009766
        k(  100) = (  -0.3126081   0.6661845  -0.3022863), wk =   0.0009766
        k(  101) = (  -0.3132112   0.6106293  -0.2496262), wk =   0.0009766
        k(  102) = (  -0.3138142   0.5550741  -0.1969662), wk =   0.0009766
        k(  103) = (  -0.3144173   0.4995189  -0.1443062), wk =   0.0009766
        k(  104) = (  -0.3150204   0.4439638  -0.0916461), wk =   0.0009766
        k(  105) = (  -0.3156234   0.3884086  -0.0389861), wk =   0.0009766
        k(  106) = (  -0.3689309   0.3883290   0.0159529), wk =   0.0009766
        k(  107) = (  -0.3695340   0.3327738   0.0686130), wk =   0.0009766
        k(  108) = (  -0.3701371   0.2772186   0.1212730), wk =   0.0009766
        k(  109) = (  -0.3707401   0.2216634   0.1739330), wk =   0.0009766
        k(  110) = (  -0.3713432   0.1661083   0.2265931), wk =   0.0009766
        k(  111) = (  -0.3719463   0.1105531   0.2792531), wk =   0.0009766
        k(  112) = (  -0.3725493   0.0549979   0.3319132), wk =   0.0009766
        k(  113) = (  -0.3731524  -0.0005573   0.3845732), wk =   0.0009766
        k(  114) = (  -0.3641064   0.8327704  -0.4053274), wk =   0.0009766
        k(  115) = (  -0.3647095   0.7772152  -0.3526673), wk =   0.0009766
        k(  116) = (  -0.3653125   0.7216600  -0.3000073), wk =   0.0009766
        k(  117) = (  -0.3659156   0.6661049  -0.2473472), wk =   0.0009766
        k(  118) = (  -0.3665187   0.6105497  -0.1946872), wk =   0.0009766
        k(  119) = (  -0.3671217   0.5549945  -0.1420272), wk =   0.0009766
        k(  120) = (  -0.3677248   0.4994393  -0.0893671), wk =   0.0009766
        k(  121) = (  -0.3683279   0.4438842  -0.0367071), wk =   0.0009766
        k(  122) = (   0.4216354  -0.4438045  -0.0182319), wk =   0.0004883
        k(  123) = (   0.4210323  -0.4993597   0.0344281), wk =   0.0009766
        k(  124) = (   0.4204292  -0.5549149   0.0870881), wk =   0.0009766
        k(  125) = (   0.4198261  -0.6104701   0.1397482), wk =   0.0009766
        k(  126) = (   0.4192231  -0.6660253   0.1924082), wk =   0.0009766
        k(  127) = (   0.4186200  -0.7215804   0.2450683), wk =   0.0009766
        k(  128) = (   0.4180169  -0.7771356   0.2977283), wk =   0.0009766
        k(  129) = (   0.4174139  -0.8326908   0.3503883), wk =   0.0009766
        k(  130) = (   0.4264599   0.0006369  -0.4395122), wk =   0.0004883
        k(  131) = (   0.0549011  -0.0028468   0.0532671), wk =   0.0009766
        k(  132) = (   0.0542980  -0.0584020   0.1059271), wk =   0.0009766
        k(  133) = (   0.0536950  -0.1139571   0.1585871), wk =   0.0009766
        k(  134) = (   0.0530919  -0.1695123   0.2112472), wk =   0.0009766
        k(  135) = (   0.0524888  -0.2250675   0.2639072), wk =   0.0009766
        k(  136) = (   0.0518858  -0.2806227   0.3165672), wk =   0.0009766
        k(  137) = (   0.0512827  -0.3361779   0.3692273), wk =   0.0009766
        k(  138) = (   0.0506796  -0.3917330   0.4218873), wk =   0.0009766
        k(  139) = (   0.0597257   0.4415946  -0.3680132), wk =   0.0009766
        k(  140) = (   0.0591226   0.3860395  -0.3153532), wk =   0.0009766
        k(  141) = (   0.0585195   0.3304843  -0.2626932), wk =   0.0009766
        k(  142) = (   0.0579165   0.2749291  -0.2100331), wk =   0.0009766
        k(  143) = (   0.0573134   0.2193739  -0.1573731), wk =   0.0009766
        k(  144) = (   0.0567103   0.1638187  -0.1047131), wk =   0.0009766
        k(  145) = (   0.0561073   0.1082636  -0.0520530), wk =   0.0009766
        k(  146) = (   0.0555042   0.0527084   0.0006070), wk =   0.0009766
        k(  147) = (   0.0021967   0.0526288   0.0555460), wk =   0.0009766
        k(  148) = (   0.0015936  -0.0029264   0.1082061), wk =   0.0009766
        k(  149) = (   0.0009906  -0.0584816   0.1608661), wk =   0.0009766
        k(  150) = (   0.0003875  -0.1140368   0.2135262), wk =   0.0009766
        k(  151) = (  -0.0002156  -0.1695919   0.2661862), wk =   0.0009766
        k(  152) = (  -0.0008186  -0.2251471   0.3188462), wk =   0.0009766
        k(  153) = (  -0.0014217  -0.2807023   0.3715063), wk =   0.0009766
        k(  154) = (  -0.0020248  -0.3362575   0.4241663), wk =   0.0009766
        k(  155) = (   0.0070212   0.4970702  -0.3657342), wk =   0.0009766
        k(  156) = (   0.0064182   0.4415150  -0.3130742), wk =   0.0009766
        k(  157) = (   0.0058151   0.3859598  -0.2604142), wk =   0.0009766
        k(  158) = (   0.0052120   0.3304047  -0.2077541), wk =   0.0009766
        k(  159) = (   0.0046090   0.2748495  -0.1550941), wk =   0.0009766
        k(  160) = (   0.0040059   0.2192943  -0.1024341), wk =   0.0009766
        k(  161) = (   0.0034028   0.1637391  -0.0497740), wk =   0.0009766
        k(  162) = (   0.0027998   0.1081840   0.0028860), wk =   0.0009766
        k(  163) = (  -0.0505077   0.1081043   0.0578250), wk =   0.0009766
        k(  164) = (  -0.0511108   0.0525492   0.1104851), wk =   0.0009766
        k(  165) = (  -0.0517139  -0.0030060   0.1631451), wk =   0.0009766
        k(  166) = (  -0.0523169  -0.0585612   0.2158052), wk =   0.0009766
        k(  167) = (  -0.0529200  -0.1141164   0.2684652), wk =   0.0009766
        k(  168) = (  -0.0535231  -0.1696715   0.3211252), wk =   0.0009766
        k(  169) = (  -0.0541261  -0.2252267   0.3737853), wk =   0.0009766
        k(  170) = (  -0.0547292  -0.2807819   0.4264453), wk =   0.0009766
        k(  171) = (  -0.0456832   0.5525458  -0.3634553), wk =   0.0009766
        k(  172) = (  -0.0462862   0.4969906  -0.3107952), wk =   0.0009766
        k(  173) = (  -0.0468893   0.4414354  -0.2581352), wk =   0.0009766
        k(  174) = (  -0.0474924   0.3858802  -0.2054751), wk =   0.0009766
        k(  175) = (  -0.0480955   0.3303251  -0.1528151), wk =   0.0009766
        k(  176) = (  -0.0486985   0.2747699  -0.1001551), wk =   0.0009766
        k(  177) = (  -0.0493016   0.2192147  -0.0474950), wk =   0.0009766
        k(  178) = (  -0.0499047   0.1636595   0.0051650), wk =   0.0009766
        k(  179) = (  -0.1032121   0.1635799   0.0601040), wk =   0.0009766
        k(  180) = (  -0.1038152   0.1080247   0.1127641), wk =   0.0009766
        k(  181) = (  -0.1044183   0.0524696   0.1654241), wk =   0.0009766
        k(  182) = (  -0.1050213  -0.0030856   0.2180841), wk =   0.0009766
        k(  183) = (  -0.1056244  -0.0586408   0.2707442), wk =   0.0009766
        k(  184) = (  -0.1062275  -0.1141960   0.3234042), wk =   0.0009766
        k(  185) = (  -0.1068306  -0.1697512   0.3760643), wk =   0.0009766
        k(  186) = (  -0.1074336  -0.2253063   0.4287243), wk =   0.0009766
        k(  187) = (  -0.0983876   0.6080213  -0.3611763), wk =   0.0009766
        k(  188) = (  -0.0989907   0.5524662  -0.3085162), wk =   0.0009766
        k(  189) = (  -0.0995937   0.4969110  -0.2558562), wk =   0.0009766
        k(  190) = (  -0.1001968   0.4413558  -0.2031962), wk =   0.0009766
        k(  191) = (  -0.1007999   0.3858006  -0.1505361), wk =   0.0009766
        k(  192) = (  -0.1014029   0.3302454  -0.0978761), wk =   0.0009766
        k(  193) = (  -0.1020060   0.2746903  -0.0452160), wk =   0.0009766
        k(  194) = (  -0.1026091   0.2191351   0.0074440), wk =   0.0009766
        k(  195) = (  -0.1559166   0.2190555   0.0623830), wk =   0.0009766
        k(  196) = (  -0.1565196   0.1635003   0.1150431), wk =   0.0009766
        k(  197) = (  -0.1571227   0.1079451   0.1677031), wk =   0.0009766
        k(  198) = (  -0.1577258   0.0523899   0.2203631), wk =   0.0009766
        k(  199) = (  -0.1583288  -0.0031652   0.2730232), wk =   0.0009766
        k(  200) = (  -0.1589319  -0.0587204   0.3256832), wk =   0.0009766
        k(  201) = (  -0.1595350  -0.1142756   0.3783432), wk =   0.0009766
        k(  202) = (  -0.1601380  -0.1698308   0.4310033), wk =   0.0009766
        k(  203) = (  -0.1510920   0.6634969  -0.3588973), wk =   0.0009766
        k(  204) = (  -0.1516951   0.6079417  -0.3062372), wk =   0.0009766
        k(  205) = (  -0.1522982   0.5523865  -0.2535772), wk =   0.0009766
        k(  206) = (  -0.1529012   0.4968314  -0.2009172), wk =   0.0009766
        k(  207) = (  -0.1535043   0.4412762  -0.1482571), wk =   0.0009766
        k(  208) = (  -0.1541074   0.3857210  -0.0955971), wk =   0.0009766
        k(  209) = (  -0.1547104   0.3301658  -0.0429371), wk =   0.0009766
        k(  210) = (  -0.1553135   0.2746107   0.0097230), wk =   0.0009766
        k(  211) = (  -0.2086210   0.2745310   0.0646620), wk =   0.0009766
        k(  212) = (  -0.2092241   0.2189759   0.1173221), wk =   0.0009766
        k(  213) = (  -0.2098271   0.1634207   0.1699821), wk =   0.0009766
        k(  214) = (  -0.2104302   0.1078655   0.2226421), wk =   0.0009766
        k(  215) = (  -0.2110333   0.0523103   0.2753022), wk =   0.0009766
        k(  216) = (  -0.2116363  -0.0032448   0.3279622), wk =   0.0009766
        k(  217) = (  -0.2122394  -0.0588000   0.3806222), wk =   0.0009766
        k(  218) = (  -0.2128425  -0.1143552   0.4332823), wk =   0.0009766
        k(  219) = (  -0.2037964   0.7189725  -0.3566183), wk =   0.0009766
        k(  220) = (  -0.2043995   0.6634173  -0.3039582), wk =   0.0009766
        k(  221) = (  -0.2050026   0.6078621  -0.2512982), wk =   0.0009766
        k(  222) = (  -0.2056056   0.5523069  -0.1986382), wk =   0.0009766
        k(  223) = (  -0.2062087   0.4967518  -0.1459781), wk =   0.0009766
        k(  224) = (  -0.2068118   0.4411966  -0.0933181), wk =   0.0009766
        k(  225) = (  -0.2074148   0.3856414  -0.0406581), wk =   0.0009766
        k(  226) = (  -0.2080179   0.3300862   0.0120020), wk =   0.0009766
        k(  227) = (  -0.2613254   0.3300066   0.0669410), wk =   0.0009766
        k(  228) = (  -0.2619285   0.2744514   0.1196010), wk =   0.0009766
        k(  229) = (  -0.2625315   0.2188963   0.1722611), wk =   0.0009766
        k(  230) = (  -0.2631346   0.1633411   0.2249211), wk =   0.0009766
        k(  231) = (  -0.2637377   0.1077859   0.2775812), wk =   0.0009766
        k(  232) = (  -0.2643407   0.0522307   0.3302412), wk =   0.0009766
        k(  233) = (  -0.2649438  -0.0033245   0.3829012), wk =   0.0009766
        k(  234) = (  -0.2655469  -0.0588796   0.4355613), wk =   0.0009766
        k(  235) = (  -0.2565009   0.7744480  -0.3543393), wk =   0.0009766
        k(  236) = (  -0.2571039   0.7188929  -0.3016793), wk =   0.0009766
        k(  237) = (  -0.2577070   0.6633377  -0.2490192), wk =   0.0009766
        k(  238) = (  -0.2583101   0.6077825  -0.1963592), wk =   0.0009766
        k(  239) = (  -0.2589131   0.5522273  -0.1436991), wk =   0.0009766
        k(  240) = (  -0.2595162   0.4966721  -0.0910391), wk =   0.0009766
        k(  241) = (  -0.2601193   0.4411170  -0.0383791), wk =   0.0009766
        k(  242) = (  -0.2607223   0.3855618   0.0142810), wk =   0.0009766
        k(  243) = (  -0.3140298   0.3854822   0.0692200), wk =   0.0009766
        k(  244) = (  -0.3146329   0.3299270   0.1218800), wk =   0.0009766
        k(  245) = (  -0.3152360   0.2743718   0.1745401), wk =   0.0009766
        k(  246) = (  -0.3158390   0.2188166   0.2272001), wk =   0.0009766
        k(  247) = (  -0.3164421   0.1632615   0.2798601), wk =   0.0009766
        k(  248) = (  -0.3170452   0.1077063   0.3325202), wk =   0.0009766
        k(  249) = (  -0.3176482   0.0521511   0.3851802), wk =   0.0009766
        k(  250) = (  -0.3182513  -0.0034041   0.4378403), wk =   0.0009766
        k(  251) = (  -0.3092053   0.8299236  -0.3520603), wk =   0.0009766
        k(  252) = (  -0.3098083   0.7743684  -0.2994003), wk =   0.0009766
        k(  253) = (  -0.3104114   0.7188133  -0.2467402), wk =   0.0009766
        k(  254) = (  -0.3110145   0.6632581  -0.1940802), wk =   0.0009766
        k(  255) = (  -0.3116175   0.6077029  -0.1414202), wk =   0.0009766
        k(  256) = (  -0.3122206   0.5521477  -0.0887601), wk =   0.0009766
        k(  257) = (  -0.3128237   0.4965925  -0.0361001), wk =   0.0009766
        k(  258) = (  -0.3134268   0.4410374   0.0165600), wk =   0.0009766
        k(  259) = (   0.4765365  -0.4466513   0.0350351), wk =   0.0009766
        k(  260) = (   0.4759334  -0.5022065   0.0876952), wk =   0.0009766
        k(  261) = (   0.4753303  -0.5577617   0.1403552), wk =   0.0009766
        k(  262) = (   0.4747273  -0.6133169   0.1930152), wk =   0.0009766
        k(  263) = (   0.4741242  -0.6688720   0.2456753), wk =   0.0009766
        k(  264) = (   0.4735211  -0.7244272   0.2983353), wk =   0.0009766
        k(  265) = (   0.4729181  -0.7799824   0.3509954), wk =   0.0009766
        k(  266) = (   0.4723150  -0.8355376   0.4036554), wk =   0.0009766
        k(  267) = (   0.4813610  -0.0022099  -0.3862452), wk =   0.0009766
        k(  268) = (   0.4807579  -0.0577651  -0.3335851), wk =   0.0009766
        k(  269) = (   0.4801549  -0.1133203  -0.2809251), wk =   0.0009766
        k(  270) = (   0.4795518  -0.1688754  -0.2282651), wk =   0.0009766
        k(  271) = (   0.4789487  -0.2244306  -0.1756050), wk =   0.0009766
        k(  272) = (   0.4783457  -0.2799858  -0.1229450), wk =   0.0009766
        k(  273) = (   0.4777426  -0.3355410  -0.0702849), wk =   0.0009766
        k(  274) = (   0.4771395  -0.3910962  -0.0176249), wk =   0.0009766
        k(  275) = (   0.4238320  -0.3911758   0.0373141), wk =   0.0009766
        k(  276) = (   0.4232290  -0.4467309   0.0899742), wk =   0.0009766
        k(  277) = (   0.4226259  -0.5022861   0.1426342), wk =   0.0009766
        k(  278) = (   0.4220228  -0.5578413   0.1952942), wk =   0.0009766
        k(  279) = (   0.4214198  -0.6133965   0.2479543), wk =   0.0009766
        k(  280) = (   0.4208167  -0.6689517   0.3006143), wk =   0.0009766
        k(  281) = (   0.4202136  -0.7245068   0.3532743), wk =   0.0009766
        k(  282) = (   0.4196106  -0.7800620   0.4059344), wk =   0.0009766
        k(  283) = (   0.4286566   0.0532657  -0.3839662), wk =   0.0009766
        k(  284) = (   0.4280535  -0.0022895  -0.3313061), wk =   0.0009766
        k(  285) = (   0.4274505  -0.0578447  -0.2786461), wk =   0.0009766
        k(  286) = (   0.4268474  -0.1133999  -0.2259861), wk =   0.0009766
        k(  287) = (   0.4262443  -0.1689551  -0.1733260), wk =   0.0009766
        k(  288) = (   0.4256413  -0.2245102  -0.1206660), wk =   0.0009766
        k(  289) = (   0.4250382  -0.2800654  -0.0680060), wk =   0.0009766
        k(  290) = (   0.4244351  -0.3356206  -0.0153459), wk =   0.0009766
        k(  291) = (   0.3711276  -0.3357002   0.0395931), wk =   0.0009766
        k(  292) = (   0.3705246  -0.3912554   0.0922532), wk =   0.0009766
        k(  293) = (   0.3699215  -0.4468106   0.1449132), wk =   0.0009766
        k(  294) = (   0.3693184  -0.5023657   0.1975732), wk =   0.0009766
        k(  295) = (   0.3687154  -0.5579209   0.2502333), wk =   0.0009766
        k(  296) = (   0.3681123  -0.6134761   0.3028933), wk =   0.0009766
        k(  297) = (   0.3675092  -0.6690313   0.3555533), wk =   0.0009766
        k(  298) = (   0.3669061  -0.7245864   0.4082134), wk =   0.0009766
        k(  299) = (   0.3759522   0.1087412  -0.3816872), wk =   0.0009766
        k(  300) = (   0.3753491   0.0531861  -0.3290271), wk =   0.0009766
        k(  301) = (   0.3747460  -0.0023691  -0.2763671), wk =   0.0009766
        k(  302) = (   0.3741430  -0.0579243  -0.2237071), wk =   0.0009766
        k(  303) = (   0.3735399  -0.1134795  -0.1710470), wk =   0.0009766
        k(  304) = (   0.3729368  -0.1690347  -0.1183870), wk =   0.0009766
        k(  305) = (   0.3723338  -0.2245898  -0.0657270), wk =   0.0009766
        k(  306) = (   0.3717307  -0.2801450  -0.0130669), wk =   0.0009766
        k(  307) = (   0.3184232  -0.2802246   0.0418721), wk =   0.0009766
        k(  308) = (   0.3178201  -0.3357798   0.0945321), wk =   0.0009766
        k(  309) = (   0.3172171  -0.3913350   0.1471922), wk =   0.0009766
        k(  310) = (   0.3166140  -0.4468902   0.1998522), wk =   0.0009766
        k(  311) = (   0.3160109  -0.5024453   0.2525123), wk =   0.0009766
        k(  312) = (   0.3154079  -0.5580005   0.3051723), wk =   0.0009766
        k(  313) = (   0.3148048  -0.6135557   0.3578323), wk =   0.0009766
        k(  314) = (   0.3142017  -0.6691109   0.4104924), wk =   0.0009766
        k(  315) = (   0.3232478   0.1642168  -0.3794082), wk =   0.0009766
        k(  316) = (   0.3226447   0.1086616  -0.3267482), wk =   0.0009766
        k(  317) = (   0.3220416   0.0531064  -0.2740881), wk =   0.0009766
        k(  318) = (   0.3214386  -0.0024487  -0.2214281), wk =   0.0009766
        k(  319) = (   0.3208355  -0.0580039  -0.1687680), wk =   0.0009766
        k(  320) = (   0.3202324  -0.1135591  -0.1161080), wk =   0.0009766
        k(  321) = (   0.3196293  -0.1691143  -0.0634480), wk =   0.0009766
        k(  322) = (   0.3190263  -0.2246695  -0.0107879), wk =   0.0009766
        k(  323) = (   0.2657188  -0.2247491   0.0441511), wk =   0.0009766
        k(  324) = (   0.2651157  -0.2803042   0.0968111), wk =   0.0009766
        k(  325) = (   0.2645127  -0.3358594   0.1494712), wk =   0.0009766
        k(  326) = (   0.2639096  -0.3914146   0.2021312), wk =   0.0009766
        k(  327) = (   0.2633065  -0.4469698   0.2547912), wk =   0.0009766
        k(  328) = (   0.2627034  -0.5025250   0.3074513), wk =   0.0009766
        k(  329) = (   0.2621004  -0.5580801   0.3601113), wk =   0.0009766
        k(  330) = (   0.2614973  -0.6136353   0.4127714), wk =   0.0009766
        k(  331) = (   0.2705433   0.2196924  -0.3771292), wk =   0.0009766
        k(  332) = (   0.2699403   0.1641372  -0.3244692), wk =   0.0009766
        k(  333) = (   0.2693372   0.1085820  -0.2718091), wk =   0.0009766
        k(  334) = (   0.2687341   0.0530268  -0.2191491), wk =   0.0009766
        k(  335) = (   0.2681311  -0.0025283  -0.1664891), wk =   0.0009766
        k(  336) = (   0.2675280  -0.0580835  -0.1138290), wk =   0.0009766
        k(  337) = (   0.2669249  -0.1136387  -0.0611690), wk =   0.0009766
        k(  338) = (   0.2663219  -0.1691939  -0.0085089), wk =   0.0009766
        k(  339) = (   0.2130144  -0.1692735   0.0464301), wk =   0.0009766
        k(  340) = (   0.2124113  -0.2248287   0.0990901), wk =   0.0009766
        k(  341) = (   0.2118082  -0.2803838   0.1517502), wk =   0.0009766
        k(  342) = (   0.2112052  -0.3359390   0.2044102), wk =   0.0009766
        k(  343) = (   0.2106021  -0.3914942   0.2570702), wk =   0.0009766
        k(  344) = (   0.2099990  -0.4470494   0.3097303), wk =   0.0009766
        k(  345) = (   0.2093960  -0.5026046   0.3623903), wk =   0.0009766
        k(  346) = (   0.2087929  -0.5581597   0.4150503), wk =   0.0009766
        k(  347) = (   0.2178389   0.2751679  -0.3748502), wk =   0.0009766
        k(  348) = (   0.2172359   0.2196128  -0.3221902), wk =   0.0009766
        k(  349) = (   0.2166328   0.1640576  -0.2695301), wk =   0.0009766
        k(  350) = (   0.2160297   0.1085024  -0.2168701), wk =   0.0009766
        k(  351) = (   0.2154266   0.0529472  -0.1642101), wk =   0.0009766
        k(  352) = (   0.2148236  -0.0026080  -0.1115500), wk =   0.0009766
        k(  353) = (   0.2142205  -0.0581631  -0.0588900), wk =   0.0009766
        k(  354) = (   0.2136174  -0.1137183  -0.0062300), wk =   0.0009766
        k(  355) = (   0.1603100  -0.1137979   0.0487091), wk =   0.0009766
        k(  356) = (   0.1597069  -0.1693531   0.1013691), wk =   0.0009766
        k(  357) = (   0.1591038  -0.2249083   0.1540292), wk =   0.0009766
        k(  358) = (   0.1585007  -0.2804635   0.2066892), wk =   0.0009766
        k(  359) = (   0.1578977  -0.3360186   0.2593492), wk =   0.0009766
        k(  360) = (   0.1572946  -0.3915738   0.3120093), wk =   0.0009766
        k(  361) = (   0.1566915  -0.4471290   0.3646693), wk =   0.0009766
        k(  362) = (   0.1560885  -0.5026842   0.4173293), wk =   0.0009766
        k(  363) = (   0.1651345   0.3306435  -0.3725712), wk =   0.0009766
        k(  364) = (   0.1645314   0.2750883  -0.3199112), wk =   0.0009766
        k(  365) = (   0.1639284   0.2195331  -0.2672511), wk =   0.0009766
        k(  366) = (   0.1633253   0.1639780  -0.2145911), wk =   0.0009766
        k(  367) = (   0.1627222   0.1084228  -0.1619311), wk =   0.0009766
        k(  368) = (   0.1621192   0.0528676  -0.1092710), wk =   0.0009766
        k(  369) = (   0.1615161  -0.0026876  -0.0566110), wk =   0.0009766
        k(  370) = (   0.1609130  -0.0582427  -0.0039510), wk =   0.0009766
        k(  371) = (   0.1076055  -0.0583224   0.0509881), wk =   0.0009766
        k(  372) = (   0.1070025  -0.1138775   0.1036481), wk =   0.0009766
        k(  373) = (   0.1063994  -0.1694327   0.1563081), wk =   0.0009766
        k(  374) = (   0.1057963  -0.2249879   0.2089682), wk =   0.0009766
        k(  375) = (   0.1051933  -0.2805431   0.2616282), wk =   0.0009766
        k(  376) = (   0.1045902  -0.3360982   0.3142883), wk =   0.0009766
        k(  377) = (   0.1039871  -0.3916534   0.3669483), wk =   0.0009766
        k(  378) = (   0.1033841  -0.4472086   0.4196083), wk =   0.0009766
        k(  379) = (   0.1124301   0.3861191  -0.3702922), wk =   0.0009766
        k(  380) = (   0.1118270   0.3305639  -0.3176322), wk =   0.0009766
        k(  381) = (   0.1112239   0.2750087  -0.2649722), wk =   0.0009766
        k(  382) = (   0.1106209   0.2194535  -0.2123121), wk =   0.0009766
        k(  383) = (   0.1100178   0.1638984  -0.1596521), wk =   0.0009766
        k(  384) = (   0.1094147   0.1083432  -0.1069920), wk =   0.0009766
        k(  385) = (   0.1088117   0.0527880  -0.0543320), wk =   0.0009766
        k(  386) = (   0.1082086  -0.0027672  -0.0016720), wk =   0.0009766
        k(  387) = (   0.1098022  -0.0056936   0.1065341), wk =   0.0009766
        k(  388) = (   0.1091992  -0.0612488   0.1591942), wk =   0.0009766
        k(  389) = (   0.1085961  -0.1168039   0.2118542), wk =   0.0009766
        k(  390) = (   0.1079930  -0.1723591   0.2645142), wk =   0.0009766
        k(  391) = (   0.1073900  -0.2279143   0.3171743), wk =   0.0009766
        k(  392) = (   0.1067869  -0.2834695   0.3698343), wk =   0.0009766
        k(  393) = (   0.1061838  -0.3390246   0.4224943), wk =   0.0009766
        k(  394) = (   0.1055807  -0.3945798   0.4751544), wk =   0.0009766
        k(  395) = (   0.1146268   0.4387478  -0.3147462), wk =   0.0009766
        k(  396) = (   0.1140237   0.3831927  -0.2620861), wk =   0.0009766
        k(  397) = (   0.1134206   0.3276375  -0.2094261), wk =   0.0009766
        k(  398) = (   0.1128176   0.2720823  -0.1567661), wk =   0.0009766
        k(  399) = (   0.1122145   0.2165271  -0.1041060), wk =   0.0009766
        k(  400) = (   0.1116114   0.1609720  -0.0514460), wk =   0.0009766
        k(  401) = (   0.1110084   0.1054168   0.0012140), wk =   0.0009766
        k(  402) = (   0.1104053   0.0498616   0.0538741), wk =   0.0009766
        k(  403) = (   0.0570978   0.0497820   0.1088131), wk =   0.0009766
        k(  404) = (   0.0564947  -0.0057732   0.1614731), wk =   0.0009766
        k(  405) = (   0.0558917  -0.0613284   0.2141332), wk =   0.0009766
        k(  406) = (   0.0552886  -0.1168835   0.2667932), wk =   0.0009766
        k(  407) = (   0.0546855  -0.1724387   0.3194533), wk =   0.0009766
        k(  408) = (   0.0540825  -0.2279939   0.3721133), wk =   0.0009766
        k(  409) = (   0.0534794  -0.2835491   0.4247733), wk =   0.0009766
        k(  410) = (   0.0528763  -0.3391043   0.4774334), wk =   0.0009766
        k(  411) = (   0.0619224   0.4942234  -0.3124672), wk =   0.0009766
        k(  412) = (   0.0613193   0.4386682  -0.2598072), wk =   0.0009766
        k(  413) = (   0.0607162   0.3831131  -0.2071471), wk =   0.0009766
        k(  414) = (   0.0601132   0.3275579  -0.1544871), wk =   0.0009766
        k(  415) = (   0.0595101   0.2720027  -0.1018270), wk =   0.0009766
        k(  416) = (   0.0589070   0.2164475  -0.0491670), wk =   0.0009766
        k(  417) = (   0.0583039   0.1608923   0.0034930), wk =   0.0009766
        k(  418) = (   0.0577009   0.1053372   0.0561531), wk =   0.0009766
        k(  419) = (   0.0043934   0.1052576   0.1110921), wk =   0.0009766
        k(  420) = (   0.0037903   0.0497024   0.1637521), wk =   0.0009766
        k(  421) = (   0.0031873  -0.0058528   0.2164122), wk =   0.0009766
        k(  422) = (   0.0025842  -0.0614080   0.2690722), wk =   0.0009766
        k(  423) = (   0.0019811  -0.1169632   0.3217322), wk =   0.0009766
        k(  424) = (   0.0013780  -0.1725183   0.3743923), wk =   0.0009766
        k(  425) = (   0.0007750  -0.2280735   0.4270523), wk =   0.0009766
        k(  426) = (   0.0001719  -0.2836287   0.4797124), wk =   0.0009766
        k(  427) = (   0.0092179   0.5496990  -0.3101882), wk =   0.0009766
        k(  428) = (   0.0086149   0.4941438  -0.2575282), wk =   0.0009766
        k(  429) = (   0.0080118   0.4385886  -0.2048681), wk =   0.0009766
        k(  430) = (   0.0074087   0.3830334  -0.1522081), wk =   0.0009766
        k(  431) = (   0.0068057   0.3274783  -0.0995480), wk =   0.0009766
        k(  432) = (   0.0062026   0.2719231  -0.0468880), wk =   0.0009766
        k(  433) = (   0.0055995   0.2163679   0.0057720), wk =   0.0009766
        k(  434) = (   0.0049965   0.1608127   0.0584321), wk =   0.0009766
        k(  435) = (  -0.0483110   0.1607331   0.1133711), wk =   0.0009766
        k(  436) = (  -0.0489141   0.1051779   0.1660311), wk =   0.0009766
        k(  437) = (  -0.0495172   0.0496228   0.2186912), wk =   0.0009766
        k(  438) = (  -0.0501202  -0.0059324   0.2713512), wk =   0.0009766
        k(  439) = (  -0.0507233  -0.0614876   0.3240112), wk =   0.0009766
        k(  440) = (  -0.0513264  -0.1170428   0.3766713), wk =   0.0009766
        k(  441) = (  -0.0519294  -0.1725979   0.4293313), wk =   0.0009766
        k(  442) = (  -0.0525325  -0.2281531   0.4819913), wk =   0.0009766
        k(  443) = (  -0.0434865   0.6051745  -0.3079092), wk =   0.0009766
        k(  444) = (  -0.0440896   0.5496194  -0.2552492), wk =   0.0009766
        k(  445) = (  -0.0446926   0.4940642  -0.2025891), wk =   0.0009766
        k(  446) = (  -0.0452957   0.4385090  -0.1499291), wk =   0.0009766
        k(  447) = (  -0.0458988   0.3829538  -0.0972691), wk =   0.0009766
        k(  448) = (  -0.0465018   0.3273987  -0.0446090), wk =   0.0009766
        k(  449) = (  -0.0471049   0.2718435   0.0080510), wk =   0.0009766
        k(  450) = (  -0.0477080   0.2162883   0.0607111), wk =   0.0009766
        k(  451) = (  -0.1010155   0.2162087   0.1156501), wk =   0.0009766
        k(  452) = (  -0.1016185   0.1606535   0.1683101), wk =   0.0009766
        k(  453) = (  -0.1022216   0.1050983   0.2209702), wk =   0.0009766
        k(  454) = (  -0.1028247   0.0495432   0.2736302), wk =   0.0009766
        k(  455) = (  -0.1034277  -0.0060120   0.3262902), wk =   0.0009766
        k(  456) = (  -0.1040308  -0.0615672   0.3789503), wk =   0.0009766
        k(  457) = (  -0.1046339  -0.1171224   0.4316103), wk =   0.0009766
        k(  458) = (  -0.1052369  -0.1726776   0.4842703), wk =   0.0009766
        k(  459) = (  -0.0961909   0.6606501  -0.3056302), wk =   0.0009766
        k(  460) = (  -0.0967940   0.6050949  -0.2529702), wk =   0.0009766
        k(  461) = (  -0.0973970   0.5495398  -0.2003101), wk =   0.0009766
        k(  462) = (  -0.0980001   0.4939846  -0.1476501), wk =   0.0009766
        k(  463) = (  -0.0986032   0.4384294  -0.0949901), wk =   0.0009766
        k(  464) = (  -0.0992062   0.3828742  -0.0423300), wk =   0.0009766
        k(  465) = (  -0.0998093   0.3273190   0.0103300), wk =   0.0009766
        k(  466) = (  -0.1004124   0.2717639   0.0629900), wk =   0.0009766
        k(  467) = (  -0.1537199   0.2716843   0.1179291), wk =   0.0009766
        k(  468) = (  -0.1543229   0.2161291   0.1705891), wk =   0.0009766
        k(  469) = (  -0.1549260   0.1605739   0.2232491), wk =   0.0009766
        k(  470) = (  -0.1555291   0.1050187   0.2759092), wk =   0.0009766
        k(  471) = (  -0.1561321   0.0494635   0.3285692), wk =   0.0009766
        k(  472) = (  -0.1567352  -0.0060916   0.3812293), wk =   0.0009766
        k(  473) = (  -0.1573383  -0.0616468   0.4338893), wk =   0.0009766
        k(  474) = (  -0.1579413  -0.1172020   0.4865493), wk =   0.0009766
        k(  475) = (  -0.1488953   0.7161257  -0.3033512), wk =   0.0009766
        k(  476) = (  -0.1494984   0.6605705  -0.2506912), wk =   0.0009766
        k(  477) = (  -0.1501015   0.6050153  -0.1980312), wk =   0.0009766
        k(  478) = (  -0.1507045   0.5494601  -0.1453711), wk =   0.0009766
        k(  479) = (  -0.1513076   0.4939050  -0.0927111), wk =   0.0009766
        k(  480) = (  -0.1519107   0.4383498  -0.0400510), wk =   0.0009766
        k(  481) = (  -0.1525137   0.3827946   0.0126090), wk =   0.0009766
        k(  482) = (  -0.1531168   0.3272394   0.0652690), wk =   0.0009766
        k(  483) = (  -0.2064243   0.3271598   0.1202081), wk =   0.0009766
        k(  484) = (  -0.2070274   0.2716046   0.1728681), wk =   0.0009766
        k(  485) = (  -0.2076304   0.2160495   0.2255281), wk =   0.0009766
        k(  486) = (  -0.2082335   0.1604943   0.2781882), wk =   0.0009766
        k(  487) = (  -0.2088366   0.1049391   0.3308482), wk =   0.0009766
        k(  488) = (  -0.2094396   0.0493839   0.3835082), wk =   0.0009766
        k(  489) = (  -0.2100427  -0.0061712   0.4361683), wk =   0.0009766
        k(  490) = (  -0.2106458  -0.0617264   0.4888283), wk =   0.0009766
        k(  491) = (  -0.2015997   0.7716012  -0.3010722), wk =   0.0009766
        k(  492) = (  -0.2022028   0.7160461  -0.2484122), wk =   0.0009766
        k(  493) = (  -0.2028059   0.6604909  -0.1957522), wk =   0.0009766
        k(  494) = (  -0.2034089   0.6049357  -0.1430921), wk =   0.0009766
        k(  495) = (  -0.2040120   0.5493805  -0.0904321), wk =   0.0009766
        k(  496) = (  -0.2046151   0.4938254  -0.0377720), wk =   0.0009766
        k(  497) = (  -0.2052182   0.4382702   0.0148880), wk =   0.0009766
        k(  498) = (  -0.2058212   0.3827150   0.0675480), wk =   0.0009766
        k(  499) = (  -0.2591287   0.3826354   0.1224871), wk =   0.0009766
        k(  500) = (  -0.2597318   0.3270802   0.1751471), wk =   0.0009766
        k(  501) = (  -0.2603348   0.2715250   0.2278071), wk =   0.0009766
        k(  502) = (  -0.2609379   0.2159699   0.2804672), wk =   0.0009766
        k(  503) = (  -0.2615410   0.1604147   0.3331272), wk =   0.0009766
        k(  504) = (  -0.2621441   0.1048595   0.3857872), wk =   0.0009766
        k(  505) = (  -0.2627471   0.0493043   0.4384473), wk =   0.0009766
        k(  506) = (  -0.2633502  -0.0062509   0.4911073), wk =   0.0009766
        k(  507) = (  -0.2543042   0.8270768  -0.2987932), wk =   0.0009766
        k(  508) = (  -0.2549072   0.7715216  -0.2461332), wk =   0.0009766
        k(  509) = (  -0.2555103   0.7159665  -0.1934732), wk =   0.0009766
        k(  510) = (  -0.2561134   0.6604113  -0.1408131), wk =   0.0009766
        k(  511) = (  -0.2567164   0.6048561  -0.0881531), wk =   0.0009766
        k(  512) = (  -0.2573195   0.5493009  -0.0354931), wk =   0.0009766
        k(  513) = (  -0.2579226   0.4937457   0.0171670), wk =   0.0009766
        k(  514) = (  -0.2585256   0.4381906   0.0698270), wk =   0.0009766
        k(  515) = (   0.5314376  -0.4494981   0.0883022), wk =   0.0009766
        k(  516) = (   0.5308345  -0.5050533   0.1409622), wk =   0.0009766
        k(  517) = (   0.5302314  -0.5606085   0.1936223), wk =   0.0009766
        k(  518) = (   0.5296284  -0.6161637   0.2462823), wk =   0.0009766
        k(  519) = (   0.5290253  -0.6717188   0.2989423), wk =   0.0009766
        k(  520) = (   0.5284222  -0.7272740   0.3516024), wk =   0.0009766
        k(  521) = (   0.5278192  -0.7828292   0.4042624), wk =   0.0009766
        k(  522) = (   0.5272161  -0.8383844   0.4569225), wk =   0.0009766
        k(  523) = (   0.5362621  -0.0050567  -0.3329781), wk =   0.0009766
        k(  524) = (   0.5356591  -0.0606119  -0.2803181), wk =   0.0009766
        k(  525) = (   0.5350560  -0.1161671  -0.2276580), wk =   0.0009766
        k(  526) = (   0.5344529  -0.1717222  -0.1749980), wk =   0.0009766
        k(  527) = (   0.5338499  -0.2272774  -0.1223380), wk =   0.0009766
        k(  528) = (   0.5332468  -0.2828326  -0.0696779), wk =   0.0009766
        k(  529) = (   0.5326437  -0.3383878  -0.0170179), wk =   0.0009766
        k(  530) = (   0.5320406  -0.3939429   0.0356422), wk =   0.0009766
        k(  531) = (   0.4787332  -0.3940226   0.0905812), wk =   0.0009766
        k(  532) = (   0.4781301  -0.4495777   0.1432412), wk =   0.0009766
        k(  533) = (   0.4775270  -0.5051329   0.1959013), wk =   0.0009766
        k(  534) = (   0.4769240  -0.5606881   0.2485613), wk =   0.0009766
        k(  535) = (   0.4763209  -0.6162433   0.3012213), wk =   0.0009766
        k(  536) = (   0.4757178  -0.6717984   0.3538814), wk =   0.0009766
        k(  537) = (   0.4751148  -0.7273536   0.4065414), wk =   0.0009766
        k(  538) = (   0.4745117  -0.7829088   0.4592014), wk =   0.0009766
        k(  539) = (   0.4835577   0.0504189  -0.3306991), wk =   0.0009766
        k(  540) = (   0.4829546  -0.0051363  -0.2780391), wk =   0.0009766
        k(  541) = (   0.4823516  -0.0606915  -0.2253790), wk =   0.0009766
        k(  542) = (   0.4817485  -0.1162467  -0.1727190), wk =   0.0009766
        k(  543) = (   0.4811454  -0.1718018  -0.1200590), wk =   0.0009766
        k(  544) = (   0.4805424  -0.2273570  -0.0673989), wk =   0.0009766
        k(  545) = (   0.4799393  -0.2829122  -0.0147389), wk =   0.0009766
        k(  546) = (   0.4793362  -0.3384674   0.0379211), wk =   0.0009766
        k(  547) = (   0.4260287  -0.3385470   0.0928602), wk =   0.0009766
        k(  548) = (   0.4254257  -0.3941022   0.1455202), wk =   0.0009766
        k(  549) = (   0.4248226  -0.4496573   0.1981802), wk =   0.0009766
        k(  550) = (   0.4242195  -0.5052125   0.2508403), wk =   0.0009766
        k(  551) = (   0.4236165  -0.5607677   0.3035003), wk =   0.0009766
        k(  552) = (   0.4230134  -0.6163229   0.3561604), wk =   0.0009766
        k(  553) = (   0.4224103  -0.6718781   0.4088204), wk =   0.0009766
        k(  554) = (   0.4218073  -0.7274332   0.4614804), wk =   0.0009766
        k(  555) = (   0.4308533   0.1058944  -0.3284201), wk =   0.0009766
        k(  556) = (   0.4302502   0.0503393  -0.2757601), wk =   0.0009766
        k(  557) = (   0.4296472  -0.0052159  -0.2231000), wk =   0.0009766
        k(  558) = (   0.4290441  -0.0607711  -0.1704400), wk =   0.0009766
        k(  559) = (   0.4284410  -0.1163263  -0.1177800), wk =   0.0009766
        k(  560) = (   0.4278379  -0.1718815  -0.0651199), wk =   0.0009766
        k(  561) = (   0.4272349  -0.2274366  -0.0124599), wk =   0.0009766
        k(  562) = (   0.4266318  -0.2829918   0.0402001), wk =   0.0009766
        k(  563) = (   0.3733243  -0.2830714   0.0951392), wk =   0.0009766
        k(  564) = (   0.3727213  -0.3386266   0.1477992), wk =   0.0009766
        k(  565) = (   0.3721182  -0.3941818   0.2004592), wk =   0.0009766
        k(  566) = (   0.3715151  -0.4497370   0.2531193), wk =   0.0009766
        k(  567) = (   0.3709120  -0.5052921   0.3057793), wk =   0.0009766
        k(  568) = (   0.3703090  -0.5608473   0.3584393), wk =   0.0009766
        k(  569) = (   0.3697059  -0.6164025   0.4110994), wk =   0.0009766
        k(  570) = (   0.3691028  -0.6719577   0.4637594), wk =   0.0009766
        k(  571) = (   0.3781489   0.1613700  -0.3261411), wk =   0.0009766
        k(  572) = (   0.3775458   0.1058148  -0.2734811), wk =   0.0009766
        k(  573) = (   0.3769427   0.0502597  -0.2208211), wk =   0.0009766
        k(  574) = (   0.3763397  -0.0052955  -0.1681610), wk =   0.0009766
        k(  575) = (   0.3757366  -0.0608507  -0.1155010), wk =   0.0009766
        k(  576) = (   0.3751335  -0.1164059  -0.0628409), wk =   0.0009766
        k(  577) = (   0.3745305  -0.1719611  -0.0101809), wk =   0.0009766
        k(  578) = (   0.3739274  -0.2275162   0.0424791), wk =   0.0009766
        k(  579) = (   0.3206199  -0.2275959   0.0974182), wk =   0.0009766
        k(  580) = (   0.3200168  -0.2831510   0.1500782), wk =   0.0009766
        k(  581) = (   0.3194138  -0.3387062   0.2027382), wk =   0.0009766
        k(  582) = (   0.3188107  -0.3942614   0.2553983), wk =   0.0009766
        k(  583) = (   0.3182076  -0.4498166   0.3080583), wk =   0.0009766
        k(  584) = (   0.3176046  -0.5053717   0.3607183), wk =   0.0009766
        k(  585) = (   0.3170015  -0.5609269   0.4133784), wk =   0.0009766
        k(  586) = (   0.3163984  -0.6164821   0.4660384), wk =   0.0009766
        k(  587) = (   0.3254445   0.2168456  -0.3238621), wk =   0.0009766
        k(  588) = (   0.3248414   0.1612904  -0.2712021), wk =   0.0009766
        k(  589) = (   0.3242383   0.1057352  -0.2185421), wk =   0.0009766
        k(  590) = (   0.3236352   0.0501800  -0.1658820), wk =   0.0009766
        k(  591) = (   0.3230322  -0.0053751  -0.1132220), wk =   0.0009766
        k(  592) = (   0.3224291  -0.0609303  -0.0605620), wk =   0.0009766
        k(  593) = (   0.3218260  -0.1164855  -0.0079019), wk =   0.0009766
        k(  594) = (   0.3212230  -0.1720407   0.0447581), wk =   0.0009766
        k(  595) = (   0.2679155  -0.1721203   0.0996971), wk =   0.0009766
        k(  596) = (   0.2673124  -0.2276755   0.1523572), wk =   0.0009766
        k(  597) = (   0.2667093  -0.2832306   0.2050172), wk =   0.0009766
        k(  598) = (   0.2661063  -0.3387858   0.2576773), wk =   0.0009766
        k(  599) = (   0.2655032  -0.3943410   0.3103373), wk =   0.0009766
        k(  600) = (   0.2649001  -0.4498962   0.3629973), wk =   0.0009766
        k(  601) = (   0.2642971  -0.5054514   0.4156574), wk =   0.0009766
        k(  602) = (   0.2636940  -0.5610065   0.4683174), wk =   0.0009766
        k(  603) = (   0.2727400   0.2723211  -0.3215832), wk =   0.0009766
        k(  604) = (   0.2721370   0.2167660  -0.2689231), wk =   0.0009766
        k(  605) = (   0.2715339   0.1612108  -0.2162631), wk =   0.0009766
        k(  606) = (   0.2709308   0.1056556  -0.1636030), wk =   0.0009766
        k(  607) = (   0.2703278   0.0501004  -0.1109430), wk =   0.0009766
        k(  608) = (   0.2697247  -0.0054547  -0.0582830), wk =   0.0009766
        k(  609) = (   0.2691216  -0.0610099  -0.0056229), wk =   0.0009766
        k(  610) = (   0.2685186  -0.1165651   0.0470371), wk =   0.0009766
        k(  611) = (   0.2152111  -0.1166447   0.1019761), wk =   0.0009766
        k(  612) = (   0.2146080  -0.1721999   0.1546362), wk =   0.0009766
        k(  613) = (   0.2140049  -0.2277551   0.2072962), wk =   0.0009766
        k(  614) = (   0.2134019  -0.2833102   0.2599562), wk =   0.0009766
        k(  615) = (   0.2127988  -0.3388654   0.3126163), wk =   0.0009766
        k(  616) = (   0.2121957  -0.3944206   0.3652763), wk =   0.0009766
        k(  617) = (   0.2115927  -0.4499758   0.4179364), wk =   0.0009766
        k(  618) = (   0.2109896  -0.5055310   0.4705964), wk =   0.0009766
        k(  619) = (   0.2200356   0.3277967  -0.3193042), wk =   0.0009766
        k(  620) = (   0.2194325   0.2722415  -0.2666441), wk =   0.0009766
        k(  621) = (   0.2188295   0.2166864  -0.2139841), wk =   0.0009766
        k(  622) = (   0.2182264   0.1611312  -0.1613240), wk =   0.0009766
        k(  623) = (   0.2176233   0.1055760  -0.1086640), wk =   0.0009766
        k(  624) = (   0.2170203   0.0500208  -0.0560040), wk =   0.0009766
        k(  625) = (   0.2164172  -0.0055344  -0.0033439), wk =   0.0009766
        k(  626) = (   0.2158141  -0.0610895   0.0493161), wk =   0.0009766
        k(  627) = (   0.1625066  -0.0611691   0.1042551), wk =   0.0009766
        k(  628) = (   0.1619036  -0.1167243   0.1569152), wk =   0.0009766
        k(  629) = (   0.1613005  -0.1722795   0.2095752), wk =   0.0009766
        k(  630) = (   0.1606974  -0.2278347   0.2622352), wk =   0.0009766
        k(  631) = (   0.1600944  -0.2833899   0.3148953), wk =   0.0009766
        k(  632) = (   0.1594913  -0.3389450   0.3675553), wk =   0.0009766
        k(  633) = (   0.1588882  -0.3945002   0.4202153), wk =   0.0009766
        k(  634) = (   0.1582852  -0.4500554   0.4728754), wk =   0.0009766
        k(  635) = (   0.1673312   0.3832723  -0.3170252), wk =   0.0009766
        k(  636) = (   0.1667281   0.3277171  -0.2643651), wk =   0.0009766
        k(  637) = (   0.1661251   0.2721619  -0.2117051), wk =   0.0009766
        k(  638) = (   0.1655220   0.2166067  -0.1590451), wk =   0.0009766
        k(  639) = (   0.1649189   0.1610516  -0.1063850), wk =   0.0009766
        k(  640) = (   0.1643159   0.1054964  -0.0537250), wk =   0.0009766
        k(  641) = (   0.1637128   0.0499412  -0.0010649), wk =   0.0009766
        k(  642) = (   0.1631097  -0.0056140   0.0515951), wk =   0.0009766
        k(  643) = (   0.1647033  -0.0085404   0.1598012), wk =   0.0009766
        k(  644) = (   0.1641003  -0.0640955   0.2124612), wk =   0.0009766
        k(  645) = (   0.1634972  -0.1196507   0.2651213), wk =   0.0009766
        k(  646) = (   0.1628941  -0.1752059   0.3177813), wk =   0.0009766
        k(  647) = (   0.1622911  -0.2307611   0.3704413), wk =   0.0009766
        k(  648) = (   0.1616880  -0.2863163   0.4231014), wk =   0.0009766
        k(  649) = (   0.1610849  -0.3418714   0.4757614), wk =   0.0009766
        k(  650) = (   0.1604819  -0.3974266   0.5284214), wk =   0.0009766
        k(  651) = (   0.1695279   0.4359011  -0.2614791), wk =   0.0009766
        k(  652) = (   0.1689248   0.3803459  -0.2088191), wk =   0.0009766
        k(  653) = (   0.1683218   0.3247907  -0.1561590), wk =   0.0009766
        k(  654) = (   0.1677187   0.2692355  -0.1034990), wk =   0.0009766
        k(  655) = (   0.1671156   0.2136803  -0.0508390), wk =   0.0009766
        k(  656) = (   0.1665125   0.1581252   0.0018211), wk =   0.0009766
        k(  657) = (   0.1659095   0.1025700   0.0544811), wk =   0.0009766
        k(  658) = (   0.1653064   0.0470148   0.1071411), wk =   0.0009766
        k(  659) = (   0.1119989   0.0469352   0.1620802), wk =   0.0009766
        k(  660) = (   0.1113959  -0.0086200   0.2147402), wk =   0.0009766
        k(  661) = (   0.1107928  -0.0641752   0.2674002), wk =   0.0009766
        k(  662) = (   0.1101897  -0.1197303   0.3200603), wk =   0.0009766
        k(  663) = (   0.1095866  -0.1752855   0.3727203), wk =   0.0009766
        k(  664) = (   0.1089836  -0.2308407   0.4253804), wk =   0.0009766
        k(  665) = (   0.1083805  -0.2863959   0.4780404), wk =   0.0009766
        k(  666) = (   0.1077774  -0.3419510   0.5307004), wk =   0.0009766
        k(  667) = (   0.1168235   0.4913766  -0.2592001), wk =   0.0009766
        k(  668) = (   0.1162204   0.4358214  -0.2065401), wk =   0.0009766
        k(  669) = (   0.1156173   0.3802663  -0.1538801), wk =   0.0009766
        k(  670) = (   0.1150143   0.3247111  -0.1012200), wk =   0.0009766
        k(  671) = (   0.1144112   0.2691559  -0.0485600), wk =   0.0009766
        k(  672) = (   0.1138081   0.2136007   0.0041001), wk =   0.0009766
        k(  673) = (   0.1132051   0.1580456   0.0567601), wk =   0.0009766
        k(  674) = (   0.1126020   0.1024904   0.1094201), wk =   0.0009766
        k(  675) = (   0.0592945   0.1024108   0.1643592), wk =   0.0009766
        k(  676) = (   0.0586914   0.0468556   0.2170192), wk =   0.0009766
        k(  677) = (   0.0580884  -0.0086996   0.2696792), wk =   0.0009766
        k(  678) = (   0.0574853  -0.0642548   0.3223393), wk =   0.0009766
        k(  679) = (   0.0568822  -0.1198099   0.3749993), wk =   0.0009766
        k(  680) = (   0.0562792  -0.1753651   0.4276593), wk =   0.0009766
        k(  681) = (   0.0556761  -0.2309203   0.4803194), wk =   0.0009766
        k(  682) = (   0.0550730  -0.2864755   0.5329794), wk =   0.0009766
        k(  683) = (   0.0641191   0.5468522  -0.2569211), wk =   0.0009766
        k(  684) = (   0.0635160   0.4912970  -0.2042611), wk =   0.0009766
        k(  685) = (   0.0629129   0.4357418  -0.1516011), wk =   0.0009766
        k(  686) = (   0.0623098   0.3801867  -0.0989410), wk =   0.0009766
        k(  687) = (   0.0617068   0.3246315  -0.0462810), wk =   0.0009766
        k(  688) = (   0.0611037   0.2690763   0.0063790), wk =   0.0009766
        k(  689) = (   0.0605006   0.2135211   0.0590391), wk =   0.0009766
        k(  690) = (   0.0598976   0.1579659   0.1116991), wk =   0.0009766
        k(  691) = (   0.0065901   0.1578863   0.1666381), wk =   0.0009766
        k(  692) = (   0.0059870   0.1023312   0.2192982), wk =   0.0009766
        k(  693) = (   0.0053839   0.0467760   0.2719582), wk =   0.0009766
        k(  694) = (   0.0047809  -0.0087792   0.3246183), wk =   0.0009766
        k(  695) = (   0.0041778  -0.0643344   0.3772783), wk =   0.0009766
        k(  696) = (   0.0035747  -0.1198896   0.4299383), wk =   0.0009766
        k(  697) = (   0.0029717  -0.1754447   0.4825984), wk =   0.0009766
        k(  698) = (   0.0023686  -0.2309999   0.5352584), wk =   0.0009766
        k(  699) = (   0.0114146   0.6023278  -0.2546421), wk =   0.0009766
        k(  700) = (   0.0108116   0.5467726  -0.2019821), wk =   0.0009766
        k(  701) = (   0.0102085   0.4912174  -0.1493221), wk =   0.0009766
        k(  702) = (   0.0096054   0.4356622  -0.0966620), wk =   0.0009766
        k(  703) = (   0.0090024   0.3801070  -0.0440020), wk =   0.0009766
        k(  704) = (   0.0083993   0.3245519   0.0086580), wk =   0.0009766
        k(  705) = (   0.0077962   0.2689967   0.0613181), wk =   0.0009766
        k(  706) = (   0.0071932   0.2134415   0.1139781), wk =   0.0009766
        k(  707) = (  -0.0461143   0.2133619   0.1689171), wk =   0.0009766
        k(  708) = (  -0.0467174   0.1578067   0.2215772), wk =   0.0009766
        k(  709) = (  -0.0473205   0.1022515   0.2742372), wk =   0.0009766
        k(  710) = (  -0.0479235   0.0466964   0.3268973), wk =   0.0009766
        k(  711) = (  -0.0485266  -0.0088588   0.3795573), wk =   0.0009766
        k(  712) = (  -0.0491297  -0.0644140   0.4322173), wk =   0.0009766
        k(  713) = (  -0.0497327  -0.1199692   0.4848774), wk =   0.0009766
        k(  714) = (  -0.0503358  -0.1755243   0.5375374), wk =   0.0009766
        k(  715) = (  -0.0412898   0.6578033  -0.2523632), wk =   0.0009766
        k(  716) = (  -0.0418929   0.6022481  -0.1997031), wk =   0.0009766
        k(  717) = (  -0.0424959   0.5466930  -0.1470431), wk =   0.0009766
        k(  718) = (  -0.0430990   0.4911378  -0.0943830), wk =   0.0009766
        k(  719) = (  -0.0437021   0.4355826  -0.0417230), wk =   0.0009766
        k(  720) = (  -0.0443051   0.3800274   0.0109370), wk =   0.0009766
        k(  721) = (  -0.0449082   0.3244723   0.0635971), wk =   0.0009766
        k(  722) = (  -0.0455113   0.2689171   0.1162571), wk =   0.0009766
        k(  723) = (  -0.0988188   0.2688375   0.1711961), wk =   0.0009766
        k(  724) = (  -0.0994218   0.2132823   0.2238562), wk =   0.0009766
        k(  725) = (  -0.1000249   0.1577271   0.2765162), wk =   0.0009766
        k(  726) = (  -0.1006280   0.1021719   0.3291762), wk =   0.0009766
        k(  727) = (  -0.1012310   0.0466168   0.3818363), wk =   0.0009766
        k(  728) = (  -0.1018341  -0.0089384   0.4344963), wk =   0.0009766
        k(  729) = (  -0.1024372  -0.0644936   0.4871564), wk =   0.0009766
        k(  730) = (  -0.1030402  -0.1200488   0.5398164), wk =   0.0009766
        k(  731) = (  -0.0939942   0.7132789  -0.2500842), wk =   0.0009766
        k(  732) = (  -0.0945973   0.6577237  -0.1974241), wk =   0.0009766
        k(  733) = (  -0.0952003   0.6021685  -0.1447641), wk =   0.0009766
        k(  734) = (  -0.0958034   0.5466134  -0.0921041), wk =   0.0009766
        k(  735) = (  -0.0964065   0.4910582  -0.0394440), wk =   0.0009766
        k(  736) = (  -0.0970096   0.4355030   0.0132160), wk =   0.0009766
        k(  737) = (  -0.0976126   0.3799478   0.0658761), wk =   0.0009766
        k(  738) = (  -0.0982157   0.3243926   0.1185361), wk =   0.0009766
        k(  739) = (  -0.1515232   0.3243130   0.1734751), wk =   0.0009766
        k(  740) = (  -0.1521262   0.2687579   0.2261352), wk =   0.0009766
        k(  741) = (  -0.1527293   0.2132027   0.2787952), wk =   0.0009766
        k(  742) = (  -0.1533324   0.1576475   0.3314552), wk =   0.0009766
        k(  743) = (  -0.1539354   0.1020923   0.3841153), wk =   0.0009766
        k(  744) = (  -0.1545385   0.0465371   0.4367753), wk =   0.0009766
        k(  745) = (  -0.1551416  -0.0090180   0.4894353), wk =   0.0009766
        k(  746) = (  -0.1557447  -0.0645732   0.5420954), wk =   0.0009766
        k(  747) = (  -0.1466986   0.7687545  -0.2478052), wk =   0.0009766
        k(  748) = (  -0.1473017   0.7131993  -0.1951451), wk =   0.0009766
        k(  749) = (  -0.1479048   0.6576441  -0.1424851), wk =   0.0009766
        k(  750) = (  -0.1485078   0.6020889  -0.0898251), wk =   0.0009766
        k(  751) = (  -0.1491109   0.5465337  -0.0371650), wk =   0.0009766
        k(  752) = (  -0.1497140   0.4909786   0.0154950), wk =   0.0009766
        k(  753) = (  -0.1503170   0.4354234   0.0681550), wk =   0.0009766
        k(  754) = (  -0.1509201   0.3798682   0.1208151), wk =   0.0009766
        k(  755) = (  -0.2042276   0.3797886   0.1757541), wk =   0.0009766
        k(  756) = (  -0.2048307   0.3242334   0.2284142), wk =   0.0009766
        k(  757) = (  -0.2054337   0.2686782   0.2810742), wk =   0.0009766
        k(  758) = (  -0.2060368   0.2131231   0.3337342), wk =   0.0009766
        k(  759) = (  -0.2066399   0.1575679   0.3863943), wk =   0.0009766
        k(  760) = (  -0.2072429   0.1020127   0.4390543), wk =   0.0009766
        k(  761) = (  -0.2078460   0.0464575   0.4917143), wk =   0.0009766
        k(  762) = (  -0.2084491  -0.0090976   0.5443744), wk =   0.0009766
        k(  763) = (  -0.1994030   0.8242300  -0.2455262), wk =   0.0009766
        k(  764) = (  -0.2000061   0.7686748  -0.1928661), wk =   0.0009766
        k(  765) = (  -0.2006092   0.7131197  -0.1402061), wk =   0.0009766
        k(  766) = (  -0.2012123   0.6575645  -0.0875461), wk =   0.0009766
        k(  767) = (  -0.2018153   0.6020093  -0.0348860), wk =   0.0009766
        k(  768) = (  -0.2024184   0.5464541   0.0177740), wk =   0.0009766
        k(  769) = (  -0.2030215   0.4908990   0.0704340), wk =   0.0009766
        k(  770) = (  -0.2036245   0.4353438   0.1230941), wk =   0.0009766
        k(  771) = (   0.5863387  -0.4523449   0.1415692), wk =   0.0009766
        k(  772) = (   0.5857356  -0.5079001   0.1942293), wk =   0.0009766
        k(  773) = (   0.5851326  -0.5634553   0.2468893), wk =   0.0009766
        k(  774) = (   0.5845295  -0.6190104   0.2995494), wk =   0.0009766
        k(  775) = (   0.5839264  -0.6745656   0.3522094), wk =   0.0009766
        k(  776) = (   0.5833234  -0.7301208   0.4048694), wk =   0.0009766
        k(  777) = (   0.5827203  -0.7856760   0.4575295), wk =   0.0009766
        k(  778) = (   0.5821172  -0.8412312   0.5101895), wk =   0.0009766
        k(  779) = (   0.5911632  -0.0079035  -0.2797110), wk =   0.0009766
        k(  780) = (   0.5905602  -0.0634587  -0.2270510), wk =   0.0009766
        k(  781) = (   0.5899571  -0.1190138  -0.1743910), wk =   0.0009766
        k(  782) = (   0.5893540  -0.1745690  -0.1217309), wk =   0.0009766
        k(  783) = (   0.5887510  -0.2301242  -0.0690709), wk =   0.0009766
        k(  784) = (   0.5881479  -0.2856794  -0.0164109), wk =   0.0009766
        k(  785) = (   0.5875448  -0.3412346   0.0362492), wk =   0.0009766
        k(  786) = (   0.5869418  -0.3967897   0.0889092), wk =   0.0009766
        k(  787) = (   0.5336343  -0.3968693   0.1438482), wk =   0.0009766
        k(  788) = (   0.5330312  -0.4524245   0.1965083), wk =   0.0009766
        k(  789) = (   0.5324281  -0.5079797   0.2491683), wk =   0.0009766
        k(  790) = (   0.5318251  -0.5635349   0.3018284), wk =   0.0009766
        k(  791) = (   0.5312220  -0.6190901   0.3544884), wk =   0.0009766
        k(  792) = (   0.5306189  -0.6746452   0.4071484), wk =   0.0009766
        k(  793) = (   0.5300159  -0.7302004   0.4598085), wk =   0.0009766
        k(  794) = (   0.5294128  -0.7857556   0.5124685), wk =   0.0009766
        k(  795) = (   0.5384588   0.0475721  -0.2774321), wk =   0.0009766
        k(  796) = (   0.5378558  -0.0079831  -0.2247720), wk =   0.0009766
        k(  797) = (   0.5372527  -0.0635383  -0.1721120), wk =   0.0009766
        k(  798) = (   0.5366496  -0.1190935  -0.1194519), wk =   0.0009766
        k(  799) = (   0.5360465  -0.1746486  -0.0667919), wk =   0.0009766
        k(  800) = (   0.5354435  -0.2302038  -0.0141319), wk =   0.0009766
        k(  801) = (   0.5348404  -0.2857590   0.0385282), wk =   0.0009766
        k(  802) = (   0.5342373  -0.3413142   0.0911882), wk =   0.0009766
        k(  803) = (   0.4809299  -0.3413938   0.1461272), wk =   0.0009766
        k(  804) = (   0.4803268  -0.3969490   0.1987873), wk =   0.0009766
        k(  805) = (   0.4797237  -0.4525041   0.2514473), wk =   0.0009766
        k(  806) = (   0.4791207  -0.5080593   0.3041073), wk =   0.0009766
        k(  807) = (   0.4785176  -0.5636145   0.3567674), wk =   0.0009766
        k(  808) = (   0.4779145  -0.6191697   0.4094274), wk =   0.0009766
        k(  809) = (   0.4773114  -0.6747248   0.4620875), wk =   0.0009766
        k(  810) = (   0.4767084  -0.7302800   0.5147475), wk =   0.0009766
        k(  811) = (   0.4857544   0.1030476  -0.2751531), wk =   0.0009766
        k(  812) = (   0.4851513   0.0474925  -0.2224930), wk =   0.0009766
        k(  813) = (   0.4845483  -0.0080627  -0.1698330), wk =   0.0009766
        k(  814) = (   0.4839452  -0.0636179  -0.1171730), wk =   0.0009766
        k(  815) = (   0.4833421  -0.1191731  -0.0645129), wk =   0.0009766
        k(  816) = (   0.4827391  -0.1747282  -0.0118529), wk =   0.0009766
        k(  817) = (   0.4821360  -0.2302834   0.0408072), wk =   0.0009766
        k(  818) = (   0.4815329  -0.2858386   0.0934672), wk =   0.0009766
        k(  819) = (   0.4282254  -0.2859182   0.1484062), wk =   0.0009766
        k(  820) = (   0.4276224  -0.3414734   0.2010663), wk =   0.0009766
        k(  821) = (   0.4270193  -0.3970286   0.2537263), wk =   0.0009766
        k(  822) = (   0.4264162  -0.4525837   0.3063863), wk =   0.0009766
        k(  823) = (   0.4258132  -0.5081389   0.3590464), wk =   0.0009766
        k(  824) = (   0.4252101  -0.5636941   0.4117064), wk =   0.0009766
        k(  825) = (   0.4246070  -0.6192493   0.4643664), wk =   0.0009766
        k(  826) = (   0.4240040  -0.6748045   0.5170265), wk =   0.0009766
        k(  827) = (   0.4330500   0.1585232  -0.2728741), wk =   0.0009766
        k(  828) = (   0.4324469   0.1029680  -0.2202140), wk =   0.0009766
        k(  829) = (   0.4318438   0.0474129  -0.1675540), wk =   0.0009766
        k(  830) = (   0.4312408  -0.0081423  -0.1148940), wk =   0.0009766
        k(  831) = (   0.4306377  -0.0636975  -0.0622339), wk =   0.0009766
        k(  832) = (   0.4300346  -0.1192527  -0.0095739), wk =   0.0009766
        k(  833) = (   0.4294316  -0.1748079   0.0430861), wk =   0.0009766
        k(  834) = (   0.4288285  -0.2303630   0.0957462), wk =   0.0009766
        k(  835) = (   0.3755210  -0.2304426   0.1506852), wk =   0.0009766
        k(  836) = (   0.3749179  -0.2859978   0.2033453), wk =   0.0009766
        k(  837) = (   0.3743149  -0.3415530   0.2560053), wk =   0.0009766
        k(  838) = (   0.3737118  -0.3971082   0.3086653), wk =   0.0009766
        k(  839) = (   0.3731087  -0.4526634   0.3613254), wk =   0.0009766
        k(  840) = (   0.3725057  -0.5082185   0.4139854), wk =   0.0009766
        k(  841) = (   0.3719026  -0.5637737   0.4666454), wk =   0.0009766
        k(  842) = (   0.3712995  -0.6193289   0.5193055), wk =   0.0009766
        k(  843) = (   0.3803456   0.2139988  -0.2705951), wk =   0.0009766
        k(  844) = (   0.3797425   0.1584436  -0.2179350), wk =   0.0009766
        k(  845) = (   0.3791394   0.1028884  -0.1652750), wk =   0.0009766
        k(  846) = (   0.3785364   0.0473332  -0.1126150), wk =   0.0009766
        k(  847) = (   0.3779333  -0.0082219  -0.0599549), wk =   0.0009766
        k(  848) = (   0.3773302  -0.0637771  -0.0072949), wk =   0.0009766
        k(  849) = (   0.3767272  -0.1193323   0.0453651), wk =   0.0009766
        k(  850) = (   0.3761241  -0.1748875   0.0980252), wk =   0.0009766
        k(  851) = (   0.3228166  -0.1749671   0.1529642), wk =   0.0009766
        k(  852) = (   0.3222135  -0.2305223   0.2056242), wk =   0.0009766
        k(  853) = (   0.3216105  -0.2860774   0.2582843), wk =   0.0009766
        k(  854) = (   0.3210074  -0.3416326   0.3109443), wk =   0.0009766
        k(  855) = (   0.3204043  -0.3971878   0.3636044), wk =   0.0009766
        k(  856) = (   0.3198013  -0.4527430   0.4162644), wk =   0.0009766
        k(  857) = (   0.3191982  -0.5082981   0.4689244), wk =   0.0009766
        k(  858) = (   0.3185951  -0.5638533   0.5215845), wk =   0.0009766
        k(  859) = (   0.3276411   0.2694744  -0.2683161), wk =   0.0009766
        k(  860) = (   0.3270381   0.2139192  -0.2156561), wk =   0.0009766
        k(  861) = (   0.3264350   0.1583640  -0.1629960), wk =   0.0009766
        k(  862) = (   0.3258319   0.1028088  -0.1103360), wk =   0.0009766
        k(  863) = (   0.3252289   0.0472536  -0.0576759), wk =   0.0009766
        k(  864) = (   0.3246258  -0.0083015  -0.0050159), wk =   0.0009766
        k(  865) = (   0.3240227  -0.0638567   0.0476441), wk =   0.0009766
        k(  866) = (   0.3234197  -0.1194119   0.1003042), wk =   0.0009766
        k(  867) = (   0.2701122  -0.1194915   0.1552432), wk =   0.0009766
        k(  868) = (   0.2695091  -0.1750467   0.2079032), wk =   0.0009766
        k(  869) = (   0.2689060  -0.2306019   0.2605633), wk =   0.0009766
        k(  870) = (   0.2683030  -0.2861570   0.3132233), wk =   0.0009766
        k(  871) = (   0.2676999  -0.3417122   0.3658833), wk =   0.0009766
        k(  872) = (   0.2670968  -0.3972674   0.4185434), wk =   0.0009766
        k(  873) = (   0.2664938  -0.4528226   0.4712034), wk =   0.0009766
        k(  874) = (   0.2658907  -0.5083778   0.5238635), wk =   0.0009766
        k(  875) = (   0.2749367   0.3249499  -0.2660371), wk =   0.0009766
        k(  876) = (   0.2743337   0.2693947  -0.2133771), wk =   0.0009766
        k(  877) = (   0.2737306   0.2138396  -0.1607170), wk =   0.0009766
        k(  878) = (   0.2731275   0.1582844  -0.1080570), wk =   0.0009766
        k(  879) = (   0.2725245   0.1027292  -0.0553970), wk =   0.0009766
        k(  880) = (   0.2719214   0.0471740  -0.0027369), wk =   0.0009766
        k(  881) = (   0.2713183  -0.0083811   0.0499231), wk =   0.0009766
        k(  882) = (   0.2707152  -0.0639363   0.1025832), wk =   0.0009766
        k(  883) = (   0.2174078  -0.0640159   0.1575222), wk =   0.0009766
        k(  884) = (   0.2168047  -0.1195711   0.2101822), wk =   0.0009766
        k(  885) = (   0.2162016  -0.1751263   0.2628423), wk =   0.0009766
        k(  886) = (   0.2155986  -0.2306815   0.3155023), wk =   0.0009766
        k(  887) = (   0.2149955  -0.2862367   0.3681623), wk =   0.0009766
        k(  888) = (   0.2143924  -0.3417918   0.4208224), wk =   0.0009766
        k(  889) = (   0.2137893  -0.3973470   0.4734824), wk =   0.0009766
        k(  890) = (   0.2131863  -0.4529022   0.5261424), wk =   0.0009766
        k(  891) = (   0.2222323   0.3804255  -0.2637581), wk =   0.0009766
        k(  892) = (   0.2216292   0.3248703  -0.2110981), wk =   0.0009766
        k(  893) = (   0.2210262   0.2693151  -0.1584380), wk =   0.0009766
        k(  894) = (   0.2204231   0.2137600  -0.1057780), wk =   0.0009766
        k(  895) = (   0.2198200   0.1582048  -0.0531180), wk =   0.0009766
        k(  896) = (   0.2192170   0.1026496  -0.0004579), wk =   0.0009766
        k(  897) = (   0.2186139   0.0470944   0.0522021), wk =   0.0009766
        k(  898) = (   0.2180108  -0.0084608   0.1048621), wk =   0.0009766
        k(  899) = (   0.2196045  -0.0113872   0.2130682), wk =   0.0009766
        k(  900) = (   0.2190014  -0.0669423   0.2657283), wk =   0.0009766
        k(  901) = (   0.2183983  -0.1224975   0.3183883), wk =   0.0009766
        k(  902) = (   0.2177952  -0.1780527   0.3710483), wk =   0.0009766
        k(  903) = (   0.2171922  -0.2336079   0.4237084), wk =   0.0009766
        k(  904) = (   0.2165891  -0.2891631   0.4763684), wk =   0.0009766
        k(  905) = (   0.2159860  -0.3447182   0.5290285), wk =   0.0009766
        k(  906) = (   0.2153830  -0.4002734   0.5816885), wk =   0.0009766
        k(  907) = (   0.2244290   0.4330543  -0.2082121), wk =   0.0009766
        k(  908) = (   0.2238259   0.3774991  -0.1555520), wk =   0.0009766
        k(  909) = (   0.2232229   0.3219439  -0.1028920), wk =   0.0009766
        k(  910) = (   0.2226198   0.2663887  -0.0502319), wk =   0.0009766
        k(  911) = (   0.2220167   0.2108336   0.0024281), wk =   0.0009766
        k(  912) = (   0.2214137   0.1552784   0.0550881), wk =   0.0009766
        k(  913) = (   0.2208106   0.0997232   0.1077482), wk =   0.0009766
        k(  914) = (   0.2202075   0.0441680   0.1604082), wk =   0.0009766
        k(  915) = (   0.1669000   0.0440884   0.2153472), wk =   0.0009766
        k(  916) = (   0.1662970  -0.0114668   0.2680073), wk =   0.0009766
        k(  917) = (   0.1656939  -0.0670219   0.3206673), wk =   0.0009766
        k(  918) = (   0.1650908  -0.1225771   0.3733273), wk =   0.0009766
        k(  919) = (   0.1644878  -0.1781323   0.4259874), wk =   0.0009766
        k(  920) = (   0.1638847  -0.2336875   0.4786474), wk =   0.0009766
        k(  921) = (   0.1632816  -0.2892427   0.5313074), wk =   0.0009766
        k(  922) = (   0.1626786  -0.3447978   0.5839675), wk =   0.0009766
        k(  923) = (   0.1717246   0.4885298  -0.2059331), wk =   0.0009766
        k(  924) = (   0.1711215   0.4329747  -0.1532730), wk =   0.0009766
        k(  925) = (   0.1705184   0.3774195  -0.1006130), wk =   0.0009766
        k(  926) = (   0.1699154   0.3218643  -0.0479530), wk =   0.0009766
        k(  927) = (   0.1693123   0.2663091   0.0047071), wk =   0.0009766
        k(  928) = (   0.1687092   0.2107539   0.0573671), wk =   0.0009766
        k(  929) = (   0.1681062   0.1551988   0.1100272), wk =   0.0009766
        k(  930) = (   0.1675031   0.0996436   0.1626872), wk =   0.0009766
        k(  931) = (   0.1141956   0.0995640   0.2176262), wk =   0.0009766
        k(  932) = (   0.1135925   0.0440088   0.2702863), wk =   0.0009766
        k(  933) = (   0.1129895  -0.0115464   0.3229463), wk =   0.0009766
        k(  934) = (   0.1123864  -0.0671016   0.3756063), wk =   0.0009766
        k(  935) = (   0.1117833  -0.1226567   0.4282664), wk =   0.0009766
        k(  936) = (   0.1111803  -0.1782119   0.4809264), wk =   0.0009766
        k(  937) = (   0.1105772  -0.2337671   0.5335864), wk =   0.0009766
        k(  938) = (   0.1099741  -0.2893223   0.5862465), wk =   0.0009766
        k(  939) = (   0.1190202   0.5440054  -0.2036541), wk =   0.0009766
        k(  940) = (   0.1184171   0.4884502  -0.1509940), wk =   0.0009766
        k(  941) = (   0.1178140   0.4328950  -0.0983340), wk =   0.0009766
        k(  942) = (   0.1172110   0.3773399  -0.0456740), wk =   0.0009766
        k(  943) = (   0.1166079   0.3217847   0.0069861), wk =   0.0009766
        k(  944) = (   0.1160048   0.2662295   0.0596461), wk =   0.0009766
        k(  945) = (   0.1154018   0.2106743   0.1123061), wk =   0.0009766
        k(  946) = (   0.1147987   0.1551192   0.1649662), wk =   0.0009766
        k(  947) = (   0.0614912   0.1550395   0.2199052), wk =   0.0009766
        k(  948) = (   0.0608881   0.0994844   0.2725652), wk =   0.0009766
        k(  949) = (   0.0602851   0.0439292   0.3252253), wk =   0.0009766
        k(  950) = (   0.0596820  -0.0116260   0.3778853), wk =   0.0009766
        k(  951) = (   0.0590789  -0.0671812   0.4305454), wk =   0.0009766
        k(  952) = (   0.0584759  -0.1227363   0.4832054), wk =   0.0009766
        k(  953) = (   0.0578728  -0.1782915   0.5358654), wk =   0.0009766
        k(  954) = (   0.0572697  -0.2338467   0.5885255), wk =   0.0009766
        k(  955) = (   0.0663157   0.5994810  -0.2013751), wk =   0.0009766
        k(  956) = (   0.0657127   0.5439258  -0.1487151), wk =   0.0009766
        k(  957) = (   0.0651096   0.4883706  -0.0960550), wk =   0.0009766
        k(  958) = (   0.0645065   0.4328154  -0.0433950), wk =   0.0009766
        k(  959) = (   0.0639035   0.3772603   0.0092651), wk =   0.0009766
        k(  960) = (   0.0633004   0.3217051   0.0619251), wk =   0.0009766
        k(  961) = (   0.0626973   0.2661499   0.1145851), wk =   0.0009766
        k(  962) = (   0.0620943   0.2105947   0.1672452), wk =   0.0009766
        k(  963) = (   0.0087868   0.2105151   0.2221842), wk =   0.0009766
        k(  964) = (   0.0081837   0.1549599   0.2748442), wk =   0.0009766
        k(  965) = (   0.0075806   0.0994048   0.3275043), wk =   0.0009766
        k(  966) = (   0.0069776   0.0438496   0.3801643), wk =   0.0009766
        k(  967) = (   0.0063745  -0.0117056   0.4328243), wk =   0.0009766
        k(  968) = (   0.0057714  -0.0672608   0.4854844), wk =   0.0009766
        k(  969) = (   0.0051684  -0.1228160   0.5381444), wk =   0.0009766
        k(  970) = (   0.0045653  -0.1783711   0.5908045), wk =   0.0009766
        k(  971) = (   0.0136113   0.6549565  -0.1990961), wk =   0.0009766
        k(  972) = (   0.0130083   0.5994014  -0.1464361), wk =   0.0009766
        k(  973) = (   0.0124052   0.5438462  -0.0937760), wk =   0.0009766
        k(  974) = (   0.0118021   0.4882910  -0.0411160), wk =   0.0009766
        k(  975) = (   0.0111991   0.4327358   0.0115441), wk =   0.0009766
        k(  976) = (   0.0105960   0.3771806   0.0642041), wk =   0.0009766
        k(  977) = (   0.0099929   0.3216255   0.1168641), wk =   0.0009766
[...]
    19.7799  23.3678  25.1285  26.9667  27.6436

     occupation numbers 
     1.0000   1.0000   1.0000   1.0000   1.0000   1.0000   1.0000   1.0000
    -0.0290  -0.0000  -0.0000  -0.0000  -0.0000

          k =-0.7542 0.4667-0.5178 (  1862 PWs)   bands (ev):

   -22.7848  -5.6374  -3.4649  -2.8009   6.7621   9.5668  11.2868  15.7965
    20.9854  21.8918  24.9570  26.7202  27.6479

     occupation numbers 
     1.0000   1.0000   1.0000   1.0000   1.0000   1.0000   1.0000   1.0000
    -0.0000  -0.0000  -0.0000  -0.0000  -0.0000

          k =-0.7548 0.4112-0.4651 (  1854 PWs)   bands (ev):

   -22.7944  -5.6825  -3.3643  -2.8023   6.6423   9.7390  11.2468  16.1242
    21.2227  21.5871  24.8298  26.6284  27.1980

     occupation numbers 
     1.0000   1.0000   1.0000   1.0000   1.0000   1.0000   1.0000   1.0000
    -0.0000  -0.0000  -0.0000  -0.0000  -0.0000

          k =-0.8081 0.4111-0.4102 (  1858 PWs)   bands (ev):

   -22.7840  -5.8040  -3.2623  -2.7236   6.3357   9.7937  11.7322  15.1332
    21.1480  21.3399  25.8390  27.0977  28.1842

     occupation numbers 
     1.0000   1.0000   1.0000   1.0000   1.0000   1.0000   1.0000   1.0000
    -0.0000  -0.0000  -0.0000  -0.0000  -0.0000

          k =-0.8087 0.3555-0.3575 (  1865 PWs)   bands (ev):

   -22.7640  -5.7061  -3.3832  -2.8322   6.5751   9.4752  11.8915  14.5143
    20.3756  22.6064  25.8522  27.0393  27.8361

     occupation numbers 
     1.0000   1.0000   1.0000   1.0000   1.0000   1.0000   1.0000   1.0000
    -0.0000  -0.0000  -0.0000  -0.0000  -0.0000

          k =-0.8093 0.3000-0.3049 (  1861 PWs)   bands (ev):

   -22.7270  -5.5180  -3.5865  -3.0263   6.8991   8.8961  12.0772  14.0864
    19.3133  24.4375  25.6705  27.2713  27.5501

     occupation numbers 
     1.0000   1.0000   1.0000   1.0000   1.0000   1.0000   1.0000   1.0000
     1.0019  -0.0000  -0.0000  -0.0000  -0.0000

          k =-0.8099 0.2444-0.2522 (  1855 PWs)   bands (ev):

   -22.6783  -5.2566  -3.8162  -3.2720   7.0306   8.1570  12.3056  14.3028
    18.2932  25.2137  26.1975  27.0157  28.2643

     occupation numbers 
     1.0000   1.0000   1.0000   1.0000   1.0000   1.0000   1.0000   1.0000
     1.0000  -0.0000  -0.0000  -0.0000  -0.0000

          k =-0.8106 0.1889-0.1995 (  1856 PWs)   bands (ev):

   -22.6251  -4.9501  -4.0211  -3.5353   6.8017   7.3769  12.9263  14.9213
    17.4456  24.9459  26.1833  27.0933  29.0216

     occupation numbers 
     1.0000   1.0000   1.0000   1.0000   1.0000   1.0000   1.0000   1.0000
     1.0000  -0.0000  -0.0000  -0.0000  -0.0000

          k =-0.8112 0.1333-0.1469 (  1864 PWs)   bands (ev):

   -22.5756  -4.6422  -4.1638  -3.7866   6.3652   6.6622  13.9464  15.6077
    16.8177  24.8107  25.8650  26.4810  30.1812

     occupation numbers 
     1.0000   1.0000   1.0000   1.0000   1.0000   1.0000   1.0000   1.0000
     1.0000  -0.0000  -0.0000  -0.0000  -0.0000

          k =-0.8118 0.0778-0.0942 (  1882 PWs)   bands (ev):

   -22.5375  -4.3993  -4.2145  -4.0024   5.9626   6.1054  15.0806  16.0781
    16.4709  24.8620  25.5466  25.7312  29.7229

     occupation numbers 
     1.0000   1.0000   1.0000   1.0000   1.0000   1.0000   1.0000   1.0000
     1.0000  -0.0000  -0.0000  -0.0000  -0.0000

          k =-0.8124 0.0222-0.0416 (  1890 PWs)   bands (ev):

   -22.5168  -4.2839  -4.1682  -4.1605   5.7379   5.7930  15.9171  16.1410
    16.4434  25.0647  25.0649  25.3342  29.0909

     occupation numbers 
     1.0000   1.0000   1.0000   1.0000   1.0000   1.0000   1.0000   1.0000
     1.0000  -0.0000  -0.0000  -0.0000  -0.0000

          k =-0.8033 0.8555-0.8315 (  1890 PWs)   bands (ev):

   -22.5168  -4.2836  -4.1681  -4.1609   5.7386   5.7923  15.9175  16.1406
    16.4434  25.0638  25.0658  25.3339  29.0910

     occupation numbers 
     1.0000   1.0000   1.0000   1.0000   1.0000   1.0000   1.0000   1.0000
     1.0000  -0.0000  -0.0000  -0.0000  -0.0000

          k =-0.8039 0.8000-0.7788 (  1882 PWs)   bands (ev):

   -22.5375  -4.3993  -4.2142  -4.0028   5.9633   6.1048  15.0810  16.0775
    16.4710  24.8620  25.5470  25.7304  29.7231

     occupation numbers 
     1.0000   1.0000   1.0000   1.0000   1.0000   1.0000   1.0000   1.0000
     1.0000  -0.0000  -0.0000  -0.0000  -0.0000

          k =-0.8045 0.7444-0.7261 (  1864 PWs)   bands (ev):

   -22.5757  -4.6423  -4.1635  -3.7869   6.3656   6.6621  13.9467  15.6072
    16.8176  24.8106  25.8650  26.4806  30.1806

     occupation numbers 
     1.0000   1.0000   1.0000   1.0000   1.0000   1.0000   1.0000   1.0000
     1.0000  -0.0000  -0.0000  -0.0000  -0.0000

          k =-0.8051 0.6889-0.6735 (  1856 PWs)   bands (ev):

   -22.6251  -4.9502  -4.0208  -3.5354   6.8018   7.3771  12.9265  14.9210
    17.4455  24.9458  26.1832  27.0933  29.0211

     occupation numbers 
     1.0000   1.0000   1.0000   1.0000   1.0000   1.0000   1.0000   1.0000
     1.0000  -0.0000  -0.0000  -0.0000  -0.0000

          k =-0.8057 0.6333-0.6208 (  1855 PWs)   bands (ev):

   -22.6783  -5.2566  -3.8161  -3.2720   7.0306   8.1574  12.3056  14.3026
    18.2930  25.2134  26.1973  27.0157  28.2644

     occupation numbers 
     1.0000   1.0000   1.0000   1.0000   1.0000   1.0000   1.0000   1.0000
     1.0000  -0.0000  -0.0000  -0.0000  -0.0000

          k =-0.8063 0.5778-0.5682 (  1860 PWs)   bands (ev):

   -22.7270  -5.5181  -3.5865  -3.0261   6.8990   8.8964  12.0771  14.0865
    19.3132  24.4369  25.6704  27.2711  27.5501

     occupation numbers 
     1.0000   1.0000   1.0000   1.0000   1.0000   1.0000   1.0000   1.0000
     1.0019  -0.0000  -0.0000  -0.0000  -0.0000

          k =-0.8069 0.5222-0.5155 (  1865 PWs)   bands (ev):

   -22.7640  -5.7061  -3.3833  -2.8320   6.5751   9.4754  11.8914  14.5145
    20.3755  22.6060  25.8517  27.0396  27.8356

     occupation numbers 
     1.0000   1.0000   1.0000   1.0000   1.0000   1.0000   1.0000   1.0000
    -0.0000  -0.0000  -0.0000  -0.0000  -0.0000

          k =-0.8075 0.4667-0.4628 (  1858 PWs)   bands (ev):

   -22.7840  -5.8040  -3.2624  -2.7236   6.3357   9.7938  11.7322  15.1332
    21.1481  21.3396  25.8386  27.0980  28.1845

     occupation numbers 
     1.0000   1.0000   1.0000   1.0000   1.0000   1.0000   1.0000   1.0000
    -0.0000  -0.0000  -0.0000  -0.0000  -0.0000

          k =-0.0176-0.4210-0.4444 (  1838 PWs)   bands (ev):

   -22.7837  -5.8647  -3.1994  -2.6772   6.1789   9.8699  11.9278  14.8834
    21.1137  21.1635  26.5836  26.8525  28.3560

     occupation numbers 
     1.0000   1.0000   1.0000   1.0000   1.0000   1.0000   1.0000   1.0000
    -0.0000  -0.0000  -0.0000  -0.0000  -0.0000

          k =-0.0182-0.4766-0.3917 (  1856 PWs)   bands (ev):

   -22.7733  -5.8142  -3.2429  -2.7597   6.3115   9.7070  12.0747  14.4293
    20.7758  21.8348  26.5086  26.8482  28.4283

     occupation numbers 
     1.0000   1.0000   1.0000   1.0000   1.0000   1.0000   1.0000   1.0000
    -0.0000  -0.0000  -0.0000  -0.0000  -0.0000

          k =-0.0188-0.5321-0.3390 (  1860 PWs)   bands (ev):

   -22.7438  -5.6665  -3.3641  -2.9789   6.6257   9.2466  12.4985  13.5717
    19.8815  23.5208  26.3043  27.2276  27.4749

     occupation numbers 
     1.0000   1.0000   1.0000   1.0000   1.0000   1.0000   1.0000   1.0000
    -0.0149  -0.0000  -0.0000  -0.0000  -0.0000

          k =-0.0194-0.5877-0.2864 (  1868 PWs)   bands (ev):

   -22.6993  -5.4333  -3.5382  -3.2711   6.8858   8.5647  12.9965  13.1509
    18.8800  25.5130  26.0204  26.6686  28.0428

     occupation numbers 
     1.0000   1.0000   1.0000   1.0000   1.0000   1.0000   1.0000   1.0000
     1.0000  -0.0000  -0.0000  -0.0000  -0.0000

          k =-0.0200-0.6433-0.2337 (  1854 PWs)   bands (ev):

   -22.6464  -5.1365  -3.7336  -3.5724   6.8351   7.7643  13.0929  13.9560
    17.9816  25.7134  26.0218  26.7404  28.6373

     occupation numbers 
     1.0000   1.0000   1.0000   1.0000   1.0000   1.0000   1.0000   1.0000
     1.0000  -0.0000  -0.0000  -0.0000  -0.0000

          k =-0.0206-0.6988-0.1811 (  1866 PWs)   bands (ev):

   -22.5930  -4.8107  -3.9195  -3.8367   6.4823   6.9597  13.8429  14.8114
    17.2644  25.4310  25.5420  26.5228  30.1916

     occupation numbers 
     1.0000   1.0000   1.0000   1.0000   1.0000   1.0000   1.0000   1.0000
     1.0000  -0.0000  -0.0000  -0.0000  -0.0000

          k =-0.0212-0.7544-0.1284 (  1886 PWs)   bands (ev):

   -22.5474  -4.5060  -4.0705  -4.0370   6.0549   6.2663  14.9220  15.5882
    16.7509  25.2075  25.2286  25.9670  30.0398

     occupation numbers 
     1.0000   1.0000   1.0000   1.0000   1.0000   1.0000   1.0000   1.0000
     1.0000  -0.0000  -0.0000  -0.0000  -0.0000

          k =-0.0218-0.8099-0.0757 (  1890 PWs)   bands (ev):

   -22.5168  -4.2841  -4.1682  -4.1603   5.7381   5.7928  15.9168  16.1407
    16.4440  25.0645  25.0653  25.3341  29.0907

     occupation numbers 
     1.0000   1.0000   1.0000   1.0000   1.0000   1.0000   1.0000   1.0000
     1.0000  -0.0000  -0.0000  -0.0000  -0.0000

          k =-0.0127 0.0234-0.8656 (  1878 PWs)   bands (ev):

   -22.5060  -4.2024  -4.2019  -4.2015   5.6233   5.6241  16.3410  16.3422
    16.3433  25.0151  25.0163  25.0179  28.7568

     occupation numbers 
     1.0000   1.0000   1.0000   1.0000   1.0000   1.0000   1.0000   1.0000
     1.0000  -0.0000  -0.0000  -0.0000  -0.0000

     the Fermi energy is    19.6381 ev

!    total energy              =     -89.94316904 Ry
     estimated scf accuracy    <          7.6E-12 Ry
     smearing contrib. (-TS)   =       0.00004194 Ry
     internal energy E=F+TS    =     -89.94321098 Ry

     The total energy is F=E-TS. E is the sum of the following terms:
     one-electron contribution =      10.64799966 Ry
     hartree contribution      =       6.75554327 Ry
     xc contribution           =     -23.46704626 Ry
     ewald contribution        =     -83.87970764 Ry

     convergence has been achieved in  11 iterations

     Forces acting on atoms (cartesian axes, Ry/au):

     atom    1 type  1   force =     0.00003460    0.00001224    0.00000348
     atom    2 type  2   force =    -0.00000732   -0.00002115    0.00001131
     atom    3 type  2   force =    -0.00000248    0.00003206    0.00003438
     atom    4 type  2   force =     0.00000106   -0.00005376   -0.00002262
     atom    5 type  2   force =     0.00000935   -0.00003233   -0.00000924
     atom    6 type  2   force =    -0.00001343    0.00005374    0.00001268
     atom    7 type  2   force =    -0.00002179    0.00000920   -0.00003000
     The non-local contrib.  to forces
     atom    1 type  1   force =     0.00000987    0.00001885    0.00000230
     atom    2 type  2   force =    -0.00000029    0.00000459   -0.00000171
     atom    3 type  2   force =    -0.00000344   -0.00000893   -0.00000388
     atom    4 type  2   force =    -0.00000121    0.00000991    0.00000294
     atom    5 type  2   force =    -0.00000081    0.00000749    0.00000119
     atom    6 type  2   force =     0.00000361   -0.00001229   -0.00000079
     atom    7 type  2   force =     0.00000636    0.00000116    0.00000272
     The ionic contribution  to forces
     atom    1 type  1   force =     0.00027500    0.00008476    0.00002679
     atom    2 type  2   force =    -0.00001347   -0.00012655    0.00009515
     atom    3 type  2   force =     0.00015538    0.00024626    0.00019647
     atom    4 type  2   force =     0.00006392   -0.00046839   -0.00010533
     atom    5 type  2   force =    -0.00000645   -0.00026255   -0.00007891
     atom    6 type  2   force =    -0.00025310    0.00040274    0.00002845
     atom    7 type  2   force =    -0.00022129    0.00012372   -0.00016262
     The local contribution  to forces
     atom    1 type  1   force =    -0.00025049   -0.00008923   -0.00002549
     atom    2 type  2   force =     0.00000643    0.00010081   -0.00008215
     atom    3 type  2   force =    -0.00015441   -0.00020528   -0.00015821
     atom    4 type  2   force =    -0.00006166    0.00040473    0.00007978
     atom    5 type  2   force =     0.00001662    0.00022271    0.00006849
     atom    6 type  2   force =     0.00023608   -0.00033672   -0.00001498
     atom    7 type  2   force =     0.00019316   -0.00011568    0.00012991
     The core correction contribution to forces
     atom    1 type  1   force =     0.00000041   -0.00000221   -0.00000016
     atom    2 type  2   force =     0.00000000    0.00000000    0.00000000
     atom    3 type  2   force =     0.00000000    0.00000000    0.00000000
     atom    4 type  2   force =     0.00000000    0.00000000    0.00000000
     atom    5 type  2   force =     0.00000000    0.00000000    0.00000000
     atom    6 type  2   force =     0.00000000    0.00000000    0.00000000
     atom    7 type  2   force =     0.00000000    0.00000000    0.00000000
     The Hubbard contrib.    to forces
     atom    1 type  1   force =     0.00000000    0.00000000    0.00000000
     atom    2 type  2   force =     0.00000000    0.00000000    0.00000000
     atom    3 type  2   force =     0.00000000    0.00000000    0.00000000
     atom    4 type  2   force =     0.00000000    0.00000000    0.00000000
     atom    5 type  2   force =     0.00000000    0.00000000    0.00000000
     atom    6 type  2   force =     0.00000000    0.00000000    0.00000000
     atom    7 type  2   force =     0.00000000    0.00000000    0.00000000
     The SCF correction term to forces
     atom    1 type  1   force =    -0.00000018    0.00000007    0.00000003
     atom    2 type  2   force =     0.00000002   -0.00000000    0.00000001
     atom    3 type  2   force =     0.00000000    0.00000000   -0.00000000
     atom    4 type  2   force =     0.00000001   -0.00000002    0.00000000
     atom    5 type  2   force =     0.00000001    0.00000001   -0.00000002
     atom    6 type  2   force =    -0.00000001   -0.00000000    0.00000000
     atom    7 type  2   force =    -0.00000001   -0.00000000   -0.00000001

     Total force =     0.000116     Total SCF correction =     0.000000


     Computing stress (Cartesian axis) and pressure

          total   stress  (Ry/bohr**3)                   (kbar)     P=     1659.95
   0.01128374  -0.00000134  -0.00000036         1659.90       -0.20       -0.05
  -0.00000134   0.01128475   0.00000029           -0.20     1660.04        0.04
  -0.00000036   0.00000029   0.01128392           -0.05        0.04     1659.92

     kinetic stress (kbar)  24941.41     -0.16     -0.06
                               -0.16  24941.51      0.02
                               -0.06      0.02  24941.47

     local   stress (kbar)   -910.06      1.95      0.32
                                1.95   -911.09     -0.60
                                0.32     -0.60   -909.73

     nonloc. stress (kbar)   8019.82      0.04      0.01
                                0.04   8019.80     -0.00
                                0.01     -0.00   8019.80

     hartree stress (kbar)   2148.61     -0.52     -0.08
                               -0.52   2148.87      0.16
                               -0.08      0.16   2148.52

     exc-cor stress (kbar)   1760.10     -0.00     -0.00
                               -0.00   1760.10      0.00
                               -0.00      0.00   1760.10

     corecor stress (kbar)  -7621.04      0.00      0.00
                                0.00  -7621.04     -0.00
                                0.00     -0.00  -7621.04

     ewald   stress (kbar) -26678.94     -1.51     -0.24
                               -1.51 -26678.12      0.47
                               -0.24      0.47 -26679.20

     hubbard stress (kbar)      0.00      0.00      0.00
                                0.00      0.00      0.00
                                0.00      0.00      0.00

     DFT-D   stress (kbar)      0.00      0.00      0.00
                                0.00      0.00      0.00
                                0.00      0.00      0.00

     XDM     stress (kbar)      0.00      0.00      0.00
                                0.00      0.00      0.00
                                0.00      0.00      0.00

     dft-nl  stress (kbar)      0.00      0.00      0.00
                                0.00      0.00      0.00
                                0.00      0.00      0.00

     TS-vdW  stress (kbar)      0.00      0.00      0.00
                                0.00      0.00      0.00
                                0.00      0.00      0.00



     Writing output data file ./out/yh6.save/

     init_run     :      8.44s CPU      8.92s WALL (       1 calls)
     electrons    :    187.09s CPU    195.78s WALL (       1 calls)
     forces       :      1.81s CPU      1.87s WALL (       1 calls)
     stress       :      3.10s CPU      3.12s WALL (       1 calls)

     Called by init_run:
     wfcinit      :      7.97s CPU      8.41s WALL (       1 calls)
     wfcinit:atom :      0.08s CPU      0.08s WALL (    2052 calls)
     wfcinit:wfcr :      7.47s CPU      7.88s WALL (    2052 calls)
     potinit      :      0.14s CPU      0.14s WALL (       1 calls)
     hinit0       :      0.27s CPU      0.28s WALL (       1 calls)

     Called by electrons:
     c_bands      :    160.85s CPU    168.05s WALL (      11 calls)
     sum_band     :     25.96s CPU     27.39s WALL (      11 calls)
     v_of_rho     :      0.08s CPU      0.09s WALL (      12 calls)
     v_h          :      0.00s CPU      0.01s WALL (      12 calls)
     v_xc         :      0.09s CPU      0.10s WALL (      14 calls)
     newd         :      0.18s CPU      0.19s WALL (      12 calls)
     mix_rho      :      0.01s CPU      0.01s WALL (      11 calls)

     Called by c_bands:
     init_us_2    :      2.50s CPU      2.63s WALL (   51300 calls)
     cegterg      :    156.27s CPU    163.26s WALL (   22572 calls)

     Called by sum_band:
     sum_band:wei :      0.16s CPU      0.16s WALL (      11 calls)
     sum_band:loo :     25.60s CPU     27.01s WALL (      11 calls)
     sum_band:buf :      0.17s CPU      0.19s WALL (   22572 calls)
     sum_band:ini :      1.04s CPU      1.10s WALL (   22572 calls)
     sum_band:cal :      3.22s CPU      3.39s WALL (   22572 calls)
     sum_band:bec :      0.26s CPU      0.27s WALL (   22572 calls)
     addusdens    :      0.19s CPU      0.21s WALL (      11 calls)
     addusd:skk   :      0.00s CPU      0.00s WALL (      22 calls)
     addusd:dgemm :      0.04s CPU      0.05s WALL (      22 calls)
     addusd:qvan2 :      0.12s CPU      0.12s WALL (      22 calls)

     Called by *egterg:
     cdiaghg      :      8.60s CPU      8.98s WALL (   75106 calls)
     cegterg:over :      8.89s CPU      9.33s WALL (   52534 calls)
     cegterg:upda :      3.06s CPU      3.17s WALL (   52534 calls)
     cegterg:last :      7.02s CPU      7.25s WALL (   43880 calls)
     h_psi        :    123.29s CPU    129.05s WALL (   77158 calls)
     s_psi        :      6.07s CPU      6.35s WALL (   77158 calls)
     g_psi        :      0.67s CPU      0.70s WALL (   52534 calls)

     Called by h_psi:
     h_psi:calbec :      8.74s CPU      9.19s WALL (   77158 calls)
     vloc_psi     :    107.45s CPU    112.43s WALL (   77158 calls)
     add_vuspsi   :      6.57s CPU      6.88s WALL (   77158 calls)

     General routines
     calbec       :     13.36s CPU     14.05s WALL (  109990 calls)
     fft          :      0.09s CPU      0.09s WALL (     179 calls)
     ffts         :      0.00s CPU      0.00s WALL (      23 calls)
     fftw         :    117.56s CPU    123.18s WALL ( 1847938 calls)
     interpolate  :      0.01s CPU      0.01s WALL (      12 calls)

     Parallel routines
     fft_scatt_xy :      9.03s CPU      9.43s WALL ( 1848140 calls)
     fft_scatt_yz :     48.64s CPU     51.08s WALL ( 1848140 calls)

     PWSCF        :   3m22.05s CPU   3m32.31s WALL


   This run was terminated on:  11:10:21  31May2026            

=------------------------------------------------------------------------------=
   JOB DONE.
=------------------------------------------------------------------------------=
