
     Program PHONON v.6.7MaX starts on  2Jun2026 at  5:12:36 

     This program is part of the open-source Quantum ESPRESSO suite
     for quantum simulation of materials; please cite
         "P. Giannozzi et al., J. Phys.:Condens. Matter 21 395502 (2009);
         "P. Giannozzi et al., J. Phys.:Condens. Matter 29 465901 (2017);
          URL http://www.quantum-espresso.org", 
     in publications or presentations arising from this work. More details at
     http://www.quantum-espresso.org/quote

     Parallel version (MPI), running on     6 processors

     MPI processes distributed on     1 nodes
     R & G space division:  proc/nbgrp/npool/nimage =       6
     Reading input from ph.in

     Reading xml data from directory:

     ./out/li2mgh16.save/
     file Mg.pbe-spnl-rrkjus_psl.1.0.0.UPF: wavefunction(s)  2P renormalized

     IMPORTANT: XC functional enforced from input :
     Exchange-correlation= PBE
                           (   1   4   3   4   0   0   0)
     Any further DFT definition will be discarded
     Please, verify this is what you really want


     Parallelization info
     --------------------
     sticks:   dense  smooth     PW     G-vecs:    dense   smooth      PW
     Min         445     223     66                15129     5357     867
     Max         447     225     67                15130     5358     869
     Sum        2677    1345    397                90777    32143    5209


     Check: negative core charge=   -0.000009
     Reading collected, re-writing distributed wavefunctions

     Saving dvscf to file. Distribute only q points, not irreducible represetations.
        8 /   8 q-points for this run, from  1 to  8:
       N       xq(1)         xq(2)         xq(3) 
       1   0.000000000   0.000000000   0.000000000
       2  -0.353553391  -0.353553391   0.353553391
       3  -0.353553391   0.353553391  -0.353553391
       4  -0.707106781   0.000000000   0.000000000
       5   0.353553391  -0.353553391  -0.353553391
       6   0.000000000  -0.707106781   0.000000000
       7   0.000000000   0.000000000  -0.707106781
       8  -0.353553391  -0.353553391  -0.353553391


     Calculation of q =    0.0000000   0.0000000   0.0000000
     Message from routine ph_restart_set_filename :
     cannot open file for reading or writing
     Message from routine ph_restart_set_filename :
     cannot open file for reading or writing
     Message from routine ph_restart_set_filename :
     cannot open file for reading or writing
 end of file reached, tag PARTIAL_EL_PHON not found
At line 965 of file xmltools.f90
Fortran runtime error: Sequential READ or WRITE not allowed after EOF marker, possibly use REWIND or BACKSPACE

Error termination. Backtrace:
#0  0xf9cfb6ae960 in ???
#1  0xf9cfb6af4d9 in ???
#2  0xf9cfb6b010f in ???
#3  0xf9cfb90696d in ???
#4  0x5df5700c6a2a in ???
#5  0x5df5700c7413 in ???
#6  0x5df5700c8946 in ???
#7  0x5df56fc43dd5 in ???
#8  0x5df56fc500ab in ???
#9  0x5df56fc27b55 in ???
#10  0x5df56fbf4a6e in ???
#11  0x5df56fbee191 in ???
#12  0x5df56fbedffe in ???
#13  0xf9cfb37fd8f in ???
#14  0xf9cfb37fe3f in ???
#15  0x5df56fbee02d in ???
#16  0xffffffffffffffff in ???
--------------------------------------------------------------------------
Primary job  terminated normally, but 1 process returned
a non-zero exit code. Per user-direction, the job has been aborted.
--------------------------------------------------------------------------
--------------------------------------------------------------------------
mpirun detected that one or more processes exited with non-zero status, thus causing
the job to be terminated. The first process to do so was:

  Process name: [[28851,1],0]
  Exit code:    2
--------------------------------------------------------------------------
