
     Program PHONON v.6.7MaX starts on 31May2026 at 16:22:17 

     This program is part of the open-source Quantum ESPRESSO suite
     for quantum simulation of materials; please cite
         "P. Giannozzi et al., J. Phys.:Condens. Matter 21 395502 (2009);
         "P. Giannozzi et al., J. Phys.:Condens. Matter 29 465901 (2017);
          URL http://www.quantum-espresso.org", 
     in publications or presentations arising from this work. More details at
     http://www.quantum-espresso.org/quote

     Parallel version (MPI), running on     9 processors

     MPI processes distributed on     1 nodes
     R & G space division:  proc/nbgrp/npool/nimage =       9
     Reading input from ph.in
     Message from routine ph_restart_set_filename :
     cannot open file for reading or writing
     Message from routine ph_restart_set_filename :
     cannot open file for reading or writing
     Run is not recoverable starting from scratch

     Reading xml data from directory:

     ./out/sch9.save/
     file Sc.pbe-spn-rrkjus_psl.1.0.0.UPF: wavefunction(s)  3S 3P renormalized

     IMPORTANT: XC functional enforced from input :
     Exchange-correlation= PBE
                           (   1   4   3   4   0   0   0)
     Any further DFT definition will be discarded
     Please, verify this is what you really want


     Parallelization info
     --------------------
     sticks:   dense  smooth     PW     G-vecs:    dense   smooth      PW
     Min         142      72     23                 5533     1964     382
     Max         143      73     24                 5540     1967     387
     Sum        1285     649    211                49839    17681    3459


     Check: negative core charge=   -0.000002
     Reading collected, re-writing distributed wavefunctions


     Dynamical matrices for ( 2, 2, 2)  uniform grid of q-points
     (   8 q-points):
       N         xq(1)         xq(2)         xq(3) 
       1   0.000000000   0.000000000   0.000000000
       2  -0.046998614  -0.043038602  -0.369207694
       3  -0.005532223  -0.585389522  -0.081004003
       4  -0.052530837  -0.628428124  -0.450211697
       5  -0.522042101  -0.318467940  -0.160385985
       6  -0.569040715  -0.361506542  -0.529593678
       7  -0.527574324  -0.903857462  -0.241389988
       8  -0.574572938  -0.946896064  -0.610597682

     Saving dvscf to file. Distribute only q points, not irreducible represetations.

     Calculation of q =    0.0000000   0.0000000   0.0000000

     ScH9 phonon + electron-phonon 2x2x2 q (RTSC B10 · YH9/CeH9 Sc-variant · c

     bravais-lattice index     =            0
     lattice parameter (alat)  =       5.3880  a.u.
     unit-cell volume          =     182.3899 (a.u.)^3
     number of atoms/cell      =           10
     number of atomic types    =            2
     kinetic-energy cut-off    =      80.0000  Ry
     charge density cut-off    =     640.0000  Ry
     convergence threshold     =      1.0E-14
     beta                      =       0.3000
     number of iterations used =            4
     Exchange-correlation= PBE
                           (   1   4   3   4   0   0   0)


     celldm(1)=    5.38796  celldm(2)=    0.00000  celldm(3)=    0.00000
     celldm(4)=    0.00000  celldm(5)=    0.00000  celldm(6)=    0.00000

     crystal axes: (cart. coord. in units of alat)
               a(1) = (  0.9918  0.0082 -0.1272 )  
               a(2) = ( -0.5162  0.8639 -0.0350 )  
               a(3) = ( -0.3176 -0.1931  1.4172 )  

     reciprocal axes: (cart. coord. in units 2 pi/alat)
               b(1) = (  1.0441  0.6369  0.3208 )  
               b(2) = (  0.0111  1.1708  0.1620 )  
               b(3) = (  0.0940  0.0861  0.7384 )  


     Atoms inside the unit cell: 

     Cartesian axes

     site n.  atom      mass           positions (alat units)
        1     Sc  44.9560   tau(    1) = (    0.01509   -0.11149   -0.15442  )
        2     H    1.0080   tau(    2) = (    0.54510    0.23323    0.06870  )
        3     H    1.0080   tau(    3) = (    0.09364    0.05414    0.43383  )
        4     H    1.0080   tau(    4) = (    0.02622    0.50812   -0.02538  )
        5     H    1.0080   tau(    5) = (    0.08864    0.74880    0.44999  )
        6     H    1.0080   tau(    6) = (    0.09817    0.31971    0.50592  )
        7     H    1.0080   tau(    7) = (   -0.42308    0.48817    0.38270  )
        8     H    1.0080   tau(    8) = (    0.15996   -0.03082    0.95395  )
        9     H    1.0080   tau(    9) = (   -0.37508    0.52733    0.75364  )
       10     H    1.0080   tau(   10) = (    0.62569    0.11390    0.65898  )

     Computing dynamical matrix for 
                    q = (   0.0000000   0.0000000   0.0000000 )

      2 Sym.Ops. (with q -> -q+G )


     G cutoff =  470.6177  (   5534 G-vectors)     FFT grid: ( 45, 45, 64)
     G cutoff =  235.3089  (   1964 G-vectors)  smooth grid: ( 32, 32, 45)

     number of k points=  1540  Methfessel-Paxton smearing, width (Ry)=  0.0200

     PseudoPot. # 1 for Sc read from file:
     ./pseudo/Sc.pbe-spn-rrkjus_psl.1.0.0.UPF
     MD5 check sum: 6dbddb3306308cee8b164cb910a655ab
     Pseudo is Ultrasoft + core correction, Zval = 11.0
     Generated using &quot;atomic&quot; code by A. Dal Corso  v.6.2.2
     Using radial grid of 1173 points,  6 beta functions with: 
                l(1) =   0
                l(2) =   0
                l(3) =   1
                l(4) =   1
                l(5) =   2
                l(6) =   2
     Q(r) pseudized with 0 coefficients 


     PseudoPot. # 2 for H  read from file:
     ./pseudo/H.pbe-rrkjus_psl.1.0.0.UPF
     MD5 check sum: 9e615844a0e642e0aee8526d0d0f65f7
     Pseudo is Ultrasoft, Zval =  1.0
     Generated using &quot;atomic&quot; code by A. Dal Corso  v.6.3MaX
     Using radial grid of  929 points,  2 beta functions with: 
                l(1) =   0
                l(2) =   0
     Q(r) pseudized with 0 coefficients 


     Mode symmetry, C_1 (1)     point group:


     Atomic displacements:
     There are   30 irreducible representations

     Representation     1      1 modes -  To be done

     Representation     2      1 modes -  To be done

     Representation     3      1 modes -  To be done

     Representation     4      1 modes -  To be done

     Representation     5      1 modes -  To be done

     Representation     6      1 modes -  To be done

     Representation     7      1 modes -  To be done

     Representation     8      1 modes -  To be done

     Representation     9      1 modes -  To be done

     Representation    10      1 modes -  To be done

     Representation    11      1 modes -  To be done

     Representation    12      1 modes -  To be done

     Representation    13      1 modes -  To be done

     Representation    14      1 modes -  To be done

     Representation    15      1 modes -  To be done

     Representation    16      1 modes -  To be done

     Representation    17      1 modes -  To be done

     Representation    18      1 modes -  To be done

     Representation    19      1 modes -  To be done

     Representation    20      1 modes -  To be done

     Representation    21      1 modes -  To be done

     Representation    22      1 modes -  To be done

     Representation    23      1 modes -  To be done

     Representation    24      1 modes -  To be done

     Representation    25      1 modes -  To be done

     Representation    26      1 modes -  To be done

     Representation    27      1 modes -  To be done

     Representation    28      1 modes -  To be done

     Representation    29      1 modes -  To be done

     Representation    30      1 modes -  To be done



     Alpha used in Ewald sum =   2.8000
     PHONON       :     38.53s CPU     41.16s WALL



     Representation #   1 mode #   1

     Self-consistent Calculation

     Pert. #  1: Fermi energy shift (Ry) =     3.3974E-03     0.0000E+00

      iter #   1 total cpu time :    78.9 secs   av.it.:  12.2
      thresh= 1.000E-02 alpha_mix =  0.300 |ddv_scf|^2 =  5.526E-06

     Pert. #  1: Fermi energy shift (Ry) =     2.5291E-04     0.0000E+00

      iter #   2 total cpu time :   121.1 secs   av.it.:  16.1
      thresh= 2.351E-04 alpha_mix =  0.300 |ddv_scf|^2 =  1.090E-06

     Pert. #  1: Fermi energy shift (Ry) =     2.4895E-03     0.0000E+00

      iter #   3 total cpu time :   165.2 secs   av.it.:  16.9
      thresh= 1.044E-04 alpha_mix =  0.300 |ddv_scf|^2 =  2.093E-08

     Pert. #  1: Fermi energy shift (Ry) =     2.2705E-03     0.0000E+00

      iter #   4 total cpu time :   208.6 secs   av.it.:  16.5
      thresh= 1.447E-05 alpha_mix =  0.300 |ddv_scf|^2 =  3.528E-09

     Pert. #  1: Fermi energy shift (Ry) =     1.7111E-03     0.0000E+00

      iter #   5 total cpu time :   255.0 secs   av.it.:  17.4
      thresh= 5.940E-06 alpha_mix =  0.300 |ddv_scf|^2 =  7.242E-11

     Pert. #  1: Fermi energy shift (Ry) =     2.0119E-03     0.0000E+00

      iter #   6 total cpu time :   300.6 secs   av.it.:  17.3
      thresh= 8.510E-07 alpha_mix =  0.300 |ddv_scf|^2 =  8.626E-12

     Pert. #  1: Fermi energy shift (Ry) =     2.0314E-03     0.0000E+00

      iter #   7 total cpu time :   345.1 secs   av.it.:  16.8
      thresh= 2.937E-07 alpha_mix =  0.300 |ddv_scf|^2 =  1.694E-12

     Pert. #  1: Fermi energy shift (Ry) =     2.0096E-03     0.0000E+00

      iter #   8 total cpu time :   392.1 secs   av.it.:  17.9
      thresh= 1.302E-07 alpha_mix =  0.300 |ddv_scf|^2 =  3.526E-14

     Pert. #  1: Fermi energy shift (Ry) =     2.0069E-03     0.0000E+00

      iter #   9 total cpu time :   438.7 secs   av.it.:  17.4
      thresh= 1.878E-08 alpha_mix =  0.300 |ddv_scf|^2 =  4.951E-15

     End of self-consistent calculation

     Convergence has been achieved 


     Representation #   2 mode #   2

     Self-consistent Calculation

     Pert. #  1: Fermi energy shift (Ry) =     1.4947E-01    -2.1176E-22

      iter #   1 total cpu time :   479.9 secs   av.it.:  12.1
      thresh= 1.000E-02 alpha_mix =  0.300 |ddv_scf|^2 =  5.326E-06

     Pert. #  1: Fermi energy shift (Ry) =     1.0940E-01    -2.1176E-22

      iter #   2 total cpu time :   522.5 secs   av.it.:  16.2
      thresh= 2.308E-04 alpha_mix =  0.300 |ddv_scf|^2 =  1.091E-06

     Pert. #  1: Fermi energy shift (Ry) =     7.7121E-02    -1.3235E-23

      iter #   3 total cpu time :   567.0 secs   av.it.:  17.0
      thresh= 1.045E-04 alpha_mix =  0.300 |ddv_scf|^2 =  1.748E-08

     Pert. #  1: Fermi energy shift (Ry) =     7.4190E-02     3.3087E-24

      iter #   4 total cpu time :   611.5 secs   av.it.:  16.5
      thresh= 1.322E-05 alpha_mix =  0.300 |ddv_scf|^2 =  3.214E-09

     Pert. #  1: Fermi energy shift (Ry) =     7.3629E-02     3.3087E-24

      iter #   5 total cpu time :   657.4 secs   av.it.:  17.5
      thresh= 5.670E-06 alpha_mix =  0.300 |ddv_scf|^2 =  3.584E-11

     Pert. #  1: Fermi energy shift (Ry) =     7.3830E-02    -5.1699E-26

      iter #   6 total cpu time :   701.3 secs   av.it.:  16.7
      thresh= 5.987E-07 alpha_mix =  0.300 |ddv_scf|^2 =  8.386E-12

     Pert. #  1: Fermi energy shift (Ry) =     7.3949E-02    -2.5849E-26

      iter #   7 total cpu time :   747.1 secs   av.it.:  17.4
      thresh= 2.896E-07 alpha_mix =  0.300 |ddv_scf|^2 =  6.536E-13

     Pert. #  1: Fermi energy shift (Ry) =     7.3983E-02     1.0340E-25

      iter #   8 total cpu time :   794.6 secs   av.it.:  17.7
      thresh= 8.085E-08 alpha_mix =  0.300 |ddv_scf|^2 =  5.238E-14

     Pert. #  1: Fermi energy shift (Ry) =     7.4001E-02     1.0340E-25

      iter #   9 total cpu time :   841.3 secs   av.it.:  17.8
      thresh= 2.289E-08 alpha_mix =  0.300 |ddv_scf|^2 =  3.358E-15

     End of self-consistent calculation

     Convergence has been achieved 


     Representation #   3 mode #   3

     Self-consistent Calculation

     Pert. #  1: Fermi energy shift (Ry) =     3.6068E-02     6.7763E-21

      iter #   1 total cpu time :   883.2 secs   av.it.:  12.6
      thresh= 1.000E-02 alpha_mix =  0.300 |ddv_scf|^2 =  3.081E-05

     Pert. #  1: Fermi energy shift (Ry) =     8.5123E-03    -4.2352E-22

      iter #   2 total cpu time :   925.6 secs   av.it.:  16.0
      thresh= 5.550E-04 alpha_mix =  0.300 |ddv_scf|^2 =  1.552E-06

     Pert. #  1: Fermi energy shift (Ry) =     1.9115E-02    -5.2940E-23

      iter #   3 total cpu time :   970.5 secs   av.it.:  16.6
      thresh= 1.246E-04 alpha_mix =  0.300 |ddv_scf|^2 =  6.766E-08

     Pert. #  1: Fermi energy shift (Ry) =     2.1365E-02    -6.6174E-24

      iter #   4 total cpu time :  1015.4 secs   av.it.:  17.1
      thresh= 2.601E-05 alpha_mix =  0.300 |ddv_scf|^2 =  5.524E-09

     Pert. #  1: Fermi energy shift (Ry) =     1.9330E-02     6.6174E-24

      iter #   5 total cpu time :  1060.3 secs   av.it.:  17.1
      thresh= 7.432E-06 alpha_mix =  0.300 |ddv_scf|^2 =  7.664E-10

     Pert. #  1: Fermi energy shift (Ry) =     1.9647E-02     3.3087E-24

      iter #   6 total cpu time :  1106.6 secs   av.it.:  17.6
      thresh= 2.768E-06 alpha_mix =  0.300 |ddv_scf|^2 =  6.057E-12

     Pert. #  1: Fermi energy shift (Ry) =     1.9633E-02     2.0680E-25

      iter #   7 total cpu time :  1152.2 secs   av.it.:  17.0
      thresh= 2.461E-07 alpha_mix =  0.300 |ddv_scf|^2 =  1.811E-12

     Pert. #  1: Fermi energy shift (Ry) =     1.9585E-02     2.0680E-25

      iter #   8 total cpu time :  1199.4 secs   av.it.:  18.0
      thresh= 1.346E-07 alpha_mix =  0.300 |ddv_scf|^2 =  1.119E-13

     Pert. #  1: Fermi energy shift (Ry) =     1.9577E-02     2.0680E-25

      iter #   9 total cpu time :  1246.4 secs   av.it.:  17.9
      thresh= 3.346E-08 alpha_mix =  0.300 |ddv_scf|^2 =  4.357E-15

     End of self-consistent calculation

     Convergence has been achieved 


     Representation #   4 mode #   4

     Self-consistent Calculation

     Pert. #  1: Fermi energy shift (Ry) =     6.3876E-03     0.0000E+00

      iter #   1 total cpu time :  1275.6 secs   av.it.:   7.1
      thresh= 1.000E-02 alpha_mix =  0.300 |ddv_scf|^2 =  2.204E-08

     Pert. #  1: Fermi energy shift (Ry) =     2.2495E-03     0.0000E+00

      iter #   2 total cpu time :  1319.9 secs   av.it.:  16.5
      thresh= 1.485E-05 alpha_mix =  0.300 |ddv_scf|^2 =  6.915E-09

     Pert. #  1: Fermi energy shift (Ry) =     1.4989E-03     0.0000E+00

      iter #   3 total cpu time :  1364.9 secs   av.it.:  17.0
      thresh= 8.316E-06 alpha_mix =  0.300 |ddv_scf|^2 =  4.074E-10

     Pert. #  1: Fermi energy shift (Ry) =     2.0823E-03     0.0000E+00

      iter #   4 total cpu time :  1410.5 secs   av.it.:  17.4
      thresh= 2.018E-06 alpha_mix =  0.300 |ddv_scf|^2 =  2.864E-11

     Pert. #  1: Fermi energy shift (Ry) =     1.9191E-03     0.0000E+00

      iter #   5 total cpu time :  1456.2 secs   av.it.:  17.4
      thresh= 5.352E-07 alpha_mix =  0.300 |ddv_scf|^2 =  2.833E-12

     Pert. #  1: Fermi energy shift (Ry) =     1.9351E-03     0.0000E+00

      iter #   6 total cpu time :  1501.9 secs   av.it.:  17.0
      thresh= 1.683E-07 alpha_mix =  0.300 |ddv_scf|^2 =  2.245E-13

     Pert. #  1: Fermi energy shift (Ry) =     1.9329E-03     0.0000E+00

      iter #   7 total cpu time :  1547.2 secs   av.it.:  17.3
      thresh= 4.738E-08 alpha_mix =  0.300 |ddv_scf|^2 =  2.063E-14

     Pert. #  1: Fermi energy shift (Ry) =     1.9338E-03     0.0000E+00

      iter #   8 total cpu time :  1590.7 secs   av.it.:  16.5
      thresh= 1.436E-08 alpha_mix =  0.300 |ddv_scf|^2 =  6.065E-15

     End of self-consistent calculation

     Convergence has been achieved 


     Representation #   5 mode #   5

     Self-consistent Calculation

     Pert. #  1: Fermi energy shift (Ry) =    -1.4003E-02    -3.3881E-21

      iter #   1 total cpu time :  1620.9 secs   av.it.:   7.5
      thresh= 1.000E-02 alpha_mix =  0.300 |ddv_scf|^2 =  3.189E-08

     Pert. #  1: Fermi energy shift (Ry) =    -1.4513E-02     3.3087E-24

      iter #   2 total cpu time :  1665.3 secs   av.it.:  16.4
      thresh= 1.786E-05 alpha_mix =  0.300 |ddv_scf|^2 =  8.751E-09

     Pert. #  1: Fermi energy shift (Ry) =    -1.0100E-02     1.6544E-24

      iter #   3 total cpu time :  1710.8 secs   av.it.:  17.3
      thresh= 9.355E-06 alpha_mix =  0.300 |ddv_scf|^2 =  5.121E-10

     Pert. #  1: Fermi energy shift (Ry) =    -8.0618E-03     8.2718E-25

      iter #   4 total cpu time :  1757.0 secs   av.it.:  17.7
      thresh= 2.263E-06 alpha_mix =  0.300 |ddv_scf|^2 =  4.331E-11

     Pert. #  1: Fermi energy shift (Ry) =    -8.0015E-03     2.0680E-25

      iter #   5 total cpu time :  1803.4 secs   av.it.:  17.7
      thresh= 6.581E-07 alpha_mix =  0.300 |ddv_scf|^2 =  2.648E-12

     Pert. #  1: Fermi energy shift (Ry) =    -7.9143E-03    -5.1699E-26

      iter #   6 total cpu time :  1849.9 secs   av.it.:  17.4
      thresh= 1.627E-07 alpha_mix =  0.300 |ddv_scf|^2 =  2.306E-13

     Pert. #  1: Fermi energy shift (Ry) =    -7.9292E-03    -1.2925E-26

      iter #   7 total cpu time :  1894.8 secs   av.it.:  17.2
      thresh= 4.802E-08 alpha_mix =  0.300 |ddv_scf|^2 =  3.062E-14

     Pert. #  1: Fermi energy shift (Ry) =    -7.9378E-03    -1.2925E-26

      iter #   8 total cpu time :  1938.1 secs   av.it.:  16.4
      thresh= 1.750E-08 alpha_mix =  0.300 |ddv_scf|^2 =  1.043E-14

     Pert. #  1: Fermi energy shift (Ry) =    -7.9500E-03    -1.2925E-26

      iter #   9 total cpu time :  1985.6 secs   av.it.:  17.8
      thresh= 1.021E-08 alpha_mix =  0.300 |ddv_scf|^2 =  2.994E-16

     End of self-consistent calculation

     Convergence has been achieved 


     Representation #   6 mode #   6

     Self-consistent Calculation

     Pert. #  1: Fermi energy shift (Ry) =     3.7180E-02    -3.3881E-21

      iter #   1 total cpu time :  2015.8 secs   av.it.:   7.4
      thresh= 1.000E-02 alpha_mix =  0.300 |ddv_scf|^2 =  2.116E-07

     Pert. #  1: Fermi energy shift (Ry) =     2.5773E-03     3.3087E-24

      iter #   2 total cpu time :  2058.6 secs   av.it.:  16.0
      thresh= 4.600E-05 alpha_mix =  0.300 |ddv_scf|^2 =  1.204E-08

     Pert. #  1: Fermi energy shift (Ry) =     2.6673E-05     4.1359E-25

      iter #   3 total cpu time :  2102.1 secs   av.it.:  16.5
      thresh= 1.097E-05 alpha_mix =  0.300 |ddv_scf|^2 =  1.319E-09

     Pert. #  1: Fermi energy shift (Ry) =     2.3235E-03     4.1359E-25

      iter #   4 total cpu time :  2148.2 secs   av.it.:  17.4
      thresh= 3.631E-06 alpha_mix =  0.300 |ddv_scf|^2 =  1.014E-10

     Pert. #  1: Fermi energy shift (Ry) =     2.1756E-03     2.5849E-26

      iter #   5 total cpu time :  2195.1 secs   av.it.:  17.5
      thresh= 1.007E-06 alpha_mix =  0.300 |ddv_scf|^2 =  5.445E-12

     Pert. #  1: Fermi energy shift (Ry) =     2.0347E-03    -1.0340E-25

      iter #   6 total cpu time :  2240.9 secs   av.it.:  17.3
      thresh= 2.333E-07 alpha_mix =  0.300 |ddv_scf|^2 =  6.725E-13

     Pert. #  1: Fermi energy shift (Ry) =     2.0128E-03    -2.5849E-26

      iter #   7 total cpu time :  2285.0 secs   av.it.:  16.6
      thresh= 8.200E-08 alpha_mix =  0.300 |ddv_scf|^2 =  1.362E-13

     Pert. #  1: Fermi energy shift (Ry) =     2.0108E-03    -3.2312E-27

      iter #   8 total cpu time :  2331.0 secs   av.it.:  17.3
      thresh= 3.691E-08 alpha_mix =  0.300 |ddv_scf|^2 =  6.425E-15

     End of self-consistent calculation

     Convergence has been achieved 


     Representation #   7 mode #   7

     Self-consistent Calculation

     Pert. #  1: Fermi energy shift (Ry) =     5.7828E-03     0.0000E+00

      iter #   1 total cpu time :  2358.9 secs   av.it.:   6.3
      thresh= 1.000E-02 alpha_mix =  0.300 |ddv_scf|^2 =  2.077E-08

     Pert. #  1: Fermi energy shift (Ry) =     4.0780E-03     0.0000E+00

      iter #   2 total cpu time :  2401.1 secs   av.it.:  15.8
      thresh= 1.441E-05 alpha_mix =  0.300 |ddv_scf|^2 =  6.829E-09

     Pert. #  1: Fermi energy shift (Ry) =     3.0667E-03     0.0000E+00

      iter #   3 total cpu time :  2445.0 secs   av.it.:  16.6
      thresh= 8.264E-06 alpha_mix =  0.300 |ddv_scf|^2 =  3.719E-10

     Pert. #  1: Fermi energy shift (Ry) =     3.5414E-03     0.0000E+00

      iter #   4 total cpu time :  2489.8 secs   av.it.:  17.0
      thresh= 1.929E-06 alpha_mix =  0.300 |ddv_scf|^2 =  1.837E-11

     Pert. #  1: Fermi energy shift (Ry) =     3.3663E-03     0.0000E+00

      iter #   5 total cpu time :  2535.0 secs   av.it.:  16.8
      thresh= 4.286E-07 alpha_mix =  0.300 |ddv_scf|^2 =  3.668E-12

     Pert. #  1: Fermi energy shift (Ry) =     3.4167E-03     0.0000E+00

      iter #   6 total cpu time :  2579.8 secs   av.it.:  17.0
      thresh= 1.915E-07 alpha_mix =  0.300 |ddv_scf|^2 =  2.555E-13

     Pert. #  1: Fermi energy shift (Ry) =     3.4152E-03     0.0000E+00

      iter #   7 total cpu time :  2624.5 secs   av.it.:  17.0
      thresh= 5.055E-08 alpha_mix =  0.300 |ddv_scf|^2 =  1.378E-14

     Pert. #  1: Fermi energy shift (Ry) =     3.4129E-03     0.0000E+00

      iter #   8 total cpu time :  2669.1 secs   av.it.:  16.9
      thresh= 1.174E-08 alpha_mix =  0.300 |ddv_scf|^2 =  3.094E-15

     End of self-consistent calculation

     Convergence has been achieved 


     Representation #   8 mode #   8

     Self-consistent Calculation

     Pert. #  1: Fermi energy shift (Ry) =    -1.5261E-02     1.6941E-21

      iter #   1 total cpu time :  2699.8 secs   av.it.:   7.3
      thresh= 1.000E-02 alpha_mix =  0.300 |ddv_scf|^2 =  4.536E-08

     Pert. #  1: Fermi energy shift (Ry) =    -1.7423E-02     3.3087E-24

      iter #   2 total cpu time :  2742.5 secs   av.it.:  16.0
      thresh= 2.130E-05 alpha_mix =  0.300 |ddv_scf|^2 =  1.168E-08

     Pert. #  1: Fermi energy shift (Ry) =    -1.4995E-02     1.6544E-24

      iter #   3 total cpu time :  2787.8 secs   av.it.:  17.2
      thresh= 1.081E-05 alpha_mix =  0.300 |ddv_scf|^2 =  5.670E-10

     Pert. #  1: Fermi energy shift (Ry) =    -1.2516E-02    -6.4623E-27

      iter #   4 total cpu time :  2833.4 secs   av.it.:  17.4
      thresh= 2.381E-06 alpha_mix =  0.300 |ddv_scf|^2 =  3.943E-11

     Pert. #  1: Fermi energy shift (Ry) =    -1.2095E-02     1.0340E-25

      iter #   5 total cpu time :  2879.8 secs   av.it.:  17.2
      thresh= 6.279E-07 alpha_mix =  0.300 |ddv_scf|^2 =  3.613E-12

     Pert. #  1: Fermi energy shift (Ry) =    -1.1841E-02    -1.2925E-26

      iter #   6 total cpu time :  2925.0 secs   av.it.:  17.2
      thresh= 1.901E-07 alpha_mix =  0.300 |ddv_scf|^2 =  3.795E-13

     Pert. #  1: Fermi energy shift (Ry) =    -1.1898E-02    -1.2925E-26

      iter #   7 total cpu time :  2969.0 secs   av.it.:  16.7
      thresh= 6.160E-08 alpha_mix =  0.300 |ddv_scf|^2 =  8.215E-14

     Pert. #  1: Fermi energy shift (Ry) =    -1.1919E-02    -3.2312E-27

      iter #   8 total cpu time :  3014.7 secs   av.it.:  17.5
      thresh= 2.866E-08 alpha_mix =  0.300 |ddv_scf|^2 =  6.810E-15

     End of self-consistent calculation

     Convergence has been achieved 


     Representation #   9 mode #   9

     Self-consistent Calculation

     Pert. #  1: Fermi energy shift (Ry) =     3.5266E-02    -3.3881E-21

      iter #   1 total cpu time :  3046.9 secs   av.it.:   7.9
      thresh= 1.000E-02 alpha_mix =  0.300 |ddv_scf|^2 =  2.176E-07

     Pert. #  1: Fermi energy shift (Ry) =     2.1015E-02     6.6174E-24

      iter #   2 total cpu time :  3092.5 secs   av.it.:  16.0
      thresh= 4.665E-05 alpha_mix =  0.300 |ddv_scf|^2 =  1.485E-08

     Pert. #  1: Fermi energy shift (Ry) =     1.7907E-02     4.1359E-25

      iter #   3 total cpu time :  3136.9 secs   av.it.:  16.8
      thresh= 1.219E-05 alpha_mix =  0.300 |ddv_scf|^2 =  9.540E-10

     Pert. #  1: Fermi energy shift (Ry) =     1.8989E-02     4.1359E-25

      iter #   4 total cpu time :  3184.1 secs   av.it.:  18.0
      thresh= 3.089E-06 alpha_mix =  0.300 |ddv_scf|^2 =  2.022E-11

     Pert. #  1: Fermi energy shift (Ry) =     1.8692E-02     2.0680E-25

      iter #   5 total cpu time :  3230.7 secs   av.it.:  17.4
      thresh= 4.497E-07 alpha_mix =  0.300 |ddv_scf|^2 =  2.748E-12

     Pert. #  1: Fermi energy shift (Ry) =     1.8653E-02     5.1699E-26

      iter #   6 total cpu time :  3275.6 secs   av.it.:  17.1
      thresh= 1.658E-07 alpha_mix =  0.300 |ddv_scf|^2 =  4.007E-13

     Pert. #  1: Fermi energy shift (Ry) =     1.8598E-02     6.4623E-27

      iter #   7 total cpu time :  3320.5 secs   av.it.:  17.1
      thresh= 6.330E-08 alpha_mix =  0.300 |ddv_scf|^2 =  6.482E-14

     Pert. #  1: Fermi energy shift (Ry) =     1.8569E-02     6.4623E-27

      iter #   8 total cpu time :  3367.0 secs   av.it.:  17.7
      thresh= 2.546E-08 alpha_mix =  0.300 |ddv_scf|^2 =  2.057E-15

     End of self-consistent calculation

     Convergence has been achieved 


     Representation #  10 mode #  10

     Self-consistent Calculation

     Pert. #  1: Fermi energy shift (Ry) =     6.5963E-03     0.0000E+00

      iter #   1 total cpu time :  3398.1 secs   av.it.:   7.6
      thresh= 1.000E-02 alpha_mix =  0.300 |ddv_scf|^2 =  3.147E-08

     Pert. #  1: Fermi energy shift (Ry) =     2.6811E-03     0.0000E+00

      iter #   2 total cpu time :  3441.5 secs   av.it.:  16.4
      thresh= 1.774E-05 alpha_mix =  0.300 |ddv_scf|^2 =  9.237E-09

     Pert. #  1: Fermi energy shift (Ry) =     1.9242E-03     0.0000E+00

      iter #   3 total cpu time :  3487.5 secs   av.it.:  17.4
      thresh= 9.611E-06 alpha_mix =  0.300 |ddv_scf|^2 =  3.903E-10

     Pert. #  1: Fermi energy shift (Ry) =     2.2501E-03     0.0000E+00

      iter #   4 total cpu time :  3533.9 secs   av.it.:  17.6
      thresh= 1.976E-06 alpha_mix =  0.300 |ddv_scf|^2 =  3.687E-11

     Pert. #  1: Fermi energy shift (Ry) =     2.0835E-03     0.0000E+00

      iter #   5 total cpu time :  3580.5 secs   av.it.:  17.5
      thresh= 6.072E-07 alpha_mix =  0.300 |ddv_scf|^2 =  3.335E-12

     Pert. #  1: Fermi energy shift (Ry) =     2.0946E-03     0.0000E+00

      iter #   6 total cpu time :  3625.5 secs   av.it.:  17.1
      thresh= 1.826E-07 alpha_mix =  0.300 |ddv_scf|^2 =  1.944E-13

     Pert. #  1: Fermi energy shift (Ry) =     2.0952E-03     0.0000E+00

      iter #   7 total cpu time :  3670.0 secs   av.it.:  17.1
      thresh= 4.409E-08 alpha_mix =  0.300 |ddv_scf|^2 =  3.613E-14

     Pert. #  1: Fermi energy shift (Ry) =     2.0925E-03     0.0000E+00

      iter #   8 total cpu time :  3714.3 secs   av.it.:  16.8
      thresh= 1.901E-08 alpha_mix =  0.300 |ddv_scf|^2 =  6.278E-15

     End of self-consistent calculation

     Convergence has been achieved 


     Representation #  11 mode #  11

     Self-consistent Calculation

     Pert. #  1: Fermi energy shift (Ry) =    -3.0904E-02    -8.4703E-22

      iter #   1 total cpu time :  3745.1 secs   av.it.:   7.5
      thresh= 1.000E-02 alpha_mix =  0.300 |ddv_scf|^2 =  3.033E-08

     Pert. #  1: Fermi energy shift (Ry) =    -3.1252E-02     1.3235E-23

      iter #   2 total cpu time :  3788.2 secs   av.it.:  16.2
      thresh= 1.741E-05 alpha_mix =  0.300 |ddv_scf|^2 =  9.347E-09

     Pert. #  1: Fermi energy shift (Ry) =    -2.9099E-02    -3.3087E-24

      iter #   3 total cpu time :  3834.4 secs   av.it.:  17.6
      thresh= 9.668E-06 alpha_mix =  0.300 |ddv_scf|^2 =  3.165E-10

     Pert. #  1: Fermi energy shift (Ry) =    -2.8412E-02    -8.2718E-25

      iter #   4 total cpu time :  3879.9 secs   av.it.:  17.5
      thresh= 1.779E-06 alpha_mix =  0.300 |ddv_scf|^2 =  3.413E-11

     Pert. #  1: Fermi energy shift (Ry) =    -2.8355E-02     1.0340E-25

      iter #   5 total cpu time :  3926.7 secs   av.it.:  17.6
      thresh= 5.842E-07 alpha_mix =  0.300 |ddv_scf|^2 =  3.532E-12

     Pert. #  1: Fermi energy shift (Ry) =    -2.8244E-02    -6.4623E-27

      iter #   6 total cpu time :  3971.8 secs   av.it.:  17.3
      thresh= 1.879E-07 alpha_mix =  0.300 |ddv_scf|^2 =  3.473E-13

     Pert. #  1: Fermi energy shift (Ry) =    -2.8211E-02    -5.1699E-26

      iter #   7 total cpu time :  4016.7 secs   av.it.:  17.2
      thresh= 5.893E-08 alpha_mix =  0.300 |ddv_scf|^2 =  3.782E-14

     Pert. #  1: Fermi energy shift (Ry) =    -2.8217E-02    -2.5849E-26

      iter #   8 total cpu time :  4061.4 secs   av.it.:  17.0
      thresh= 1.945E-08 alpha_mix =  0.300 |ddv_scf|^2 =  5.886E-15

     End of self-consistent calculation

     Convergence has been achieved 


     Representation #  12 mode #  12

     Self-consistent Calculation

     Pert. #  1: Fermi energy shift (Ry) =     4.0696E-02    -3.3881E-21

      iter #   1 total cpu time :  4092.7 secs   av.it.:   7.7
      thresh= 1.000E-02 alpha_mix =  0.300 |ddv_scf|^2 =  2.332E-07

     Pert. #  1: Fermi energy shift (Ry) =     1.0790E-02    -6.6174E-24

      iter #   2 total cpu time :  4135.8 secs   av.it.:  16.3
      thresh= 4.829E-05 alpha_mix =  0.300 |ddv_scf|^2 =  1.302E-08

     Pert. #  1: Fermi energy shift (Ry) =     8.0921E-03    -1.0340E-25

      iter #   3 total cpu time :  4179.7 secs   av.it.:  16.6
      thresh= 1.141E-05 alpha_mix =  0.300 |ddv_scf|^2 =  1.421E-09

     Pert. #  1: Fermi energy shift (Ry) =     9.2248E-03    -1.6544E-24

      iter #   4 total cpu time :  4225.9 secs   av.it.:  17.6
      thresh= 3.770E-06 alpha_mix =  0.300 |ddv_scf|^2 =  9.560E-11

     Pert. #  1: Fermi energy shift (Ry) =     8.5238E-03    -2.0680E-25

      iter #   5 total cpu time :  4272.5 secs   av.it.:  17.5
      thresh= 9.778E-07 alpha_mix =  0.300 |ddv_scf|^2 =  8.996E-12

     Pert. #  1: Fermi energy shift (Ry) =     8.3201E-03    -2.0680E-25

      iter #   6 total cpu time :  4318.5 secs   av.it.:  17.5
      thresh= 2.999E-07 alpha_mix =  0.300 |ddv_scf|^2 =  6.629E-13

     Pert. #  1: Fermi energy shift (Ry) =     8.3011E-03    -5.1699E-26

      iter #   7 total cpu time :  4361.7 secs   av.it.:  16.4
      thresh= 8.142E-08 alpha_mix =  0.300 |ddv_scf|^2 =  2.087E-13

     Pert. #  1: Fermi energy shift (Ry) =     8.2930E-03    -2.5849E-26

      iter #   8 total cpu time :  4407.6 secs   av.it.:  17.5
      thresh= 4.568E-08 alpha_mix =  0.300 |ddv_scf|^2 =  7.730E-15

     End of self-consistent calculation

     Convergence has been achieved 


     Representation #  13 mode #  13

     Self-consistent Calculation

     Pert. #  1: Fermi energy shift (Ry) =    -4.4930E-03     0.0000E+00

      iter #   1 total cpu time :  4434.8 secs   av.it.:   5.9
      thresh= 1.000E-02 alpha_mix =  0.300 |ddv_scf|^2 =  2.020E-08

     Pert. #  1: Fermi energy shift (Ry) =    -2.8724E-03     0.0000E+00

      iter #   2 total cpu time :  4476.6 secs   av.it.:  15.7
      thresh= 1.421E-05 alpha_mix =  0.300 |ddv_scf|^2 =  6.585E-09

     Pert. #  1: Fermi energy shift (Ry) =    -2.3418E-03     0.0000E+00

      iter #   3 total cpu time :  4520.3 secs   av.it.:  16.5
      thresh= 8.115E-06 alpha_mix =  0.300 |ddv_scf|^2 =  3.658E-10

     Pert. #  1: Fermi energy shift (Ry) =    -2.3860E-03     0.0000E+00

      iter #   4 total cpu time :  4564.5 secs   av.it.:  16.7
      thresh= 1.913E-06 alpha_mix =  0.300 |ddv_scf|^2 =  2.194E-11

     Pert. #  1: Fermi energy shift (Ry) =    -2.2014E-03     0.0000E+00

      iter #   5 total cpu time :  4608.8 secs   av.it.:  16.5
      thresh= 4.684E-07 alpha_mix =  0.300 |ddv_scf|^2 =  5.042E-12

     Pert. #  1: Fermi energy shift (Ry) =    -2.2066E-03     0.0000E+00

      iter #   6 total cpu time :  4654.0 secs   av.it.:  17.3
      thresh= 2.245E-07 alpha_mix =  0.300 |ddv_scf|^2 =  2.828E-13

     Pert. #  1: Fermi energy shift (Ry) =    -2.2060E-03     0.0000E+00

      iter #   7 total cpu time :  4698.0 secs   av.it.:  16.8
      thresh= 5.318E-08 alpha_mix =  0.300 |ddv_scf|^2 =  4.797E-14

     Pert. #  1: Fermi energy shift (Ry) =    -2.2090E-03     0.0000E+00

      iter #   8 total cpu time :  4742.4 secs   av.it.:  17.0
      thresh= 2.190E-08 alpha_mix =  0.300 |ddv_scf|^2 =  4.170E-15

     End of self-consistent calculation

     Convergence has been achieved 


     Representation #  14 mode #  14

     Self-consistent Calculation

     Pert. #  1: Fermi energy shift (Ry) =    -3.9691E-03    -8.4703E-22

      iter #   1 total cpu time :  4771.7 secs   av.it.:   6.9
      thresh= 1.000E-02 alpha_mix =  0.300 |ddv_scf|^2 =  3.802E-08

     Pert. #  1: Fermi energy shift (Ry) =    -9.5567E-03    -3.3087E-24

      iter #   2 total cpu time :  4814.0 secs   av.it.:  16.0
      thresh= 1.950E-05 alpha_mix =  0.300 |ddv_scf|^2 =  9.954E-09

     Pert. #  1: Fermi energy shift (Ry) =    -1.1023E-02    -1.2925E-26

      iter #   3 total cpu time :  4858.4 secs   av.it.:  17.0
      thresh= 9.977E-06 alpha_mix =  0.300 |ddv_scf|^2 =  4.553E-10

     Pert. #  1: Fermi energy shift (Ry) =    -9.3101E-03     5.1699E-26

      iter #   4 total cpu time :  4903.7 secs   av.it.:  17.3
      thresh= 2.134E-06 alpha_mix =  0.300 |ddv_scf|^2 =  4.133E-11

     Pert. #  1: Fermi energy shift (Ry) =    -8.7802E-03    -2.5849E-26

      iter #   5 total cpu time :  4949.6 secs   av.it.:  17.3
      thresh= 6.429E-07 alpha_mix =  0.300 |ddv_scf|^2 =  3.102E-12

     Pert. #  1: Fermi energy shift (Ry) =    -8.6387E-03    -6.4623E-27

      iter #   6 total cpu time :  4994.5 secs   av.it.:  17.1
      thresh= 1.761E-07 alpha_mix =  0.300 |ddv_scf|^2 =  4.112E-13

     Pert. #  1: Fermi energy shift (Ry) =    -8.6768E-03    -1.6156E-27

      iter #   7 total cpu time :  5039.4 secs   av.it.:  16.9
      thresh= 6.413E-08 alpha_mix =  0.300 |ddv_scf|^2 =  5.343E-14

     Pert. #  1: Fermi energy shift (Ry) =    -8.7049E-03     8.0779E-28

      iter #   8 total cpu time :  5085.3 secs   av.it.:  17.5
      thresh= 2.312E-08 alpha_mix =  0.300 |ddv_scf|^2 =  7.635E-15

     End of self-consistent calculation

     Convergence has been achieved 


     Representation #  15 mode #  15

     Self-consistent Calculation

     Pert. #  1: Fermi energy shift (Ry) =    -2.6177E-02    -3.3881E-21

      iter #   1 total cpu time :  5116.6 secs   av.it.:   7.6
      thresh= 1.000E-02 alpha_mix =  0.300 |ddv_scf|^2 =  2.137E-07

     Pert. #  1: Fermi energy shift (Ry) =    -1.3198E-02     1.3235E-23

      iter #   2 total cpu time :  5158.8 secs   av.it.:  16.0
      thresh= 4.623E-05 alpha_mix =  0.300 |ddv_scf|^2 =  1.347E-08

     Pert. #  1: Fermi energy shift (Ry) =    -1.1579E-02     3.3087E-24

      iter #   3 total cpu time :  5202.4 secs   av.it.:  16.6
      thresh= 1.161E-05 alpha_mix =  0.300 |ddv_scf|^2 =  1.103E-09

     Pert. #  1: Fermi energy shift (Ry) =    -1.0755E-02    -4.1359E-25

      iter #   4 total cpu time :  5247.5 secs   av.it.:  17.3
      thresh= 3.322E-06 alpha_mix =  0.300 |ddv_scf|^2 =  1.130E-10

     Pert. #  1: Fermi energy shift (Ry) =    -9.6738E-03     1.0340E-25

      iter #   5 total cpu time :  5294.1 secs   av.it.:  17.5
      thresh= 1.063E-06 alpha_mix =  0.300 |ddv_scf|^2 =  7.897E-12

     Pert. #  1: Fermi energy shift (Ry) =    -9.4002E-03     2.5849E-26

      iter #   6 total cpu time :  5340.3 secs   av.it.:  17.7
      thresh= 2.810E-07 alpha_mix =  0.300 |ddv_scf|^2 =  3.227E-13

     Pert. #  1: Fermi energy shift (Ry) =    -9.3925E-03     1.6156E-27

      iter #   7 total cpu time :  5383.4 secs   av.it.:  16.4
      thresh= 5.681E-08 alpha_mix =  0.300 |ddv_scf|^2 =  1.040E-13

     Pert. #  1: Fermi energy shift (Ry) =    -9.4131E-03    -3.2312E-27

      iter #   8 total cpu time :  5429.4 secs   av.it.:  17.7
      thresh= 3.225E-08 alpha_mix =  0.300 |ddv_scf|^2 =  3.439E-15

     End of self-consistent calculation

     Convergence has been achieved 


     Representation #  16 mode #  16

     Self-consistent Calculation

     Pert. #  1: Fermi energy shift (Ry) =    -4.1594E-03     0.0000E+00

      iter #   1 total cpu time :  5457.2 secs   av.it.:   6.1
      thresh= 1.000E-02 alpha_mix =  0.300 |ddv_scf|^2 =  2.080E-08

     Pert. #  1: Fermi energy shift (Ry) =    -2.6144E-03     0.0000E+00

      iter #   2 total cpu time :  5499.1 secs   av.it.:  15.8
      thresh= 1.442E-05 alpha_mix =  0.300 |ddv_scf|^2 =  6.776E-09

     Pert. #  1: Fermi energy shift (Ry) =    -2.3394E-03     0.0000E+00

      iter #   3 total cpu time :  5542.5 secs   av.it.:  16.5
      thresh= 8.232E-06 alpha_mix =  0.300 |ddv_scf|^2 =  3.996E-10

     Pert. #  1: Fermi energy shift (Ry) =    -2.6012E-03     0.0000E+00

      iter #   4 total cpu time :  5586.9 secs   av.it.:  16.8
      thresh= 1.999E-06 alpha_mix =  0.300 |ddv_scf|^2 =  1.982E-11

     Pert. #  1: Fermi energy shift (Ry) =    -2.4488E-03     0.0000E+00

      iter #   5 total cpu time :  5631.1 secs   av.it.:  16.5
      thresh= 4.452E-07 alpha_mix =  0.300 |ddv_scf|^2 =  3.587E-12

     Pert. #  1: Fermi energy shift (Ry) =    -2.5240E-03     0.0000E+00

      iter #   6 total cpu time :  5676.5 secs   av.it.:  17.5
      thresh= 1.894E-07 alpha_mix =  0.300 |ddv_scf|^2 =  4.068E-13

     Pert. #  1: Fermi energy shift (Ry) =    -2.4993E-03     0.0000E+00

      iter #   7 total cpu time :  5721.3 secs   av.it.:  17.1
      thresh= 6.378E-08 alpha_mix =  0.300 |ddv_scf|^2 =  2.770E-14

     Pert. #  1: Fermi energy shift (Ry) =    -2.4971E-03     0.0000E+00

      iter #   8 total cpu time :  5765.7 secs   av.it.:  16.8
      thresh= 1.664E-08 alpha_mix =  0.300 |ddv_scf|^2 =  3.184E-15

     End of self-consistent calculation

     Convergence has been achieved 


     Representation #  17 mode #  17

     Self-consistent Calculation

     Pert. #  1: Fermi energy shift (Ry) =    -4.1537E-03     1.6941E-21

      iter #   1 total cpu time :  5795.2 secs   av.it.:   7.3
      thresh= 1.000E-02 alpha_mix =  0.300 |ddv_scf|^2 =  4.624E-08

     Pert. #  1: Fermi energy shift (Ry) =     1.2638E-03     6.6174E-24

      iter #   2 total cpu time :  5838.7 secs   av.it.:  16.0
      thresh= 2.150E-05 alpha_mix =  0.300 |ddv_scf|^2 =  1.152E-08

     Pert. #  1: Fermi energy shift (Ry) =     1.0752E-04     1.6544E-24

      iter #   3 total cpu time :  5883.3 secs   av.it.:  17.1
      thresh= 1.073E-05 alpha_mix =  0.300 |ddv_scf|^2 =  6.781E-10

     Pert. #  1: Fermi energy shift (Ry) =    -2.0057E-03    -4.1359E-25

      iter #   4 total cpu time :  5928.5 secs   av.it.:  17.5
      thresh= 2.604E-06 alpha_mix =  0.300 |ddv_scf|^2 =  4.347E-11

     Pert. #  1: Fermi energy shift (Ry) =    -2.5748E-03     1.0340E-25

      iter #   5 total cpu time :  5974.6 secs   av.it.:  17.4
      thresh= 6.593E-07 alpha_mix =  0.300 |ddv_scf|^2 =  4.115E-12

     Pert. #  1: Fermi energy shift (Ry) =    -2.8331E-03    -6.4623E-27

      iter #   6 total cpu time :  6019.3 secs   av.it.:  17.1
      thresh= 2.028E-07 alpha_mix =  0.300 |ddv_scf|^2 =  3.715E-13

     Pert. #  1: Fermi energy shift (Ry) =    -2.7978E-03    -1.2925E-26

      iter #   7 total cpu time :  6063.4 secs   av.it.:  16.8
      thresh= 6.095E-08 alpha_mix =  0.300 |ddv_scf|^2 =  7.591E-14

     Pert. #  1: Fermi energy shift (Ry) =    -2.7763E-03    -3.2312E-27

      iter #   8 total cpu time :  6108.8 secs   av.it.:  17.5
      thresh= 2.755E-08 alpha_mix =  0.300 |ddv_scf|^2 =  6.938E-15

     End of self-consistent calculation

     Convergence has been achieved 


     Representation #  18 mode #  18

     Self-consistent Calculation

     Pert. #  1: Fermi energy shift (Ry) =    -4.1926E-02    -3.3881E-21

      iter #   1 total cpu time :  6138.9 secs   av.it.:   7.6
      thresh= 1.000E-02 alpha_mix =  0.300 |ddv_scf|^2 =  2.249E-07

     Pert. #  1: Fermi energy shift (Ry) =    -2.7520E-02     2.6470E-23

      iter #   2 total cpu time :  6182.3 secs   av.it.:  16.1
      thresh= 4.743E-05 alpha_mix =  0.300 |ddv_scf|^2 =  1.346E-08

     Pert. #  1: Fermi energy shift (Ry) =    -2.6029E-02    -3.3087E-24

      iter #   3 total cpu time :  6225.9 secs   av.it.:  16.7
      thresh= 1.160E-05 alpha_mix =  0.300 |ddv_scf|^2 =  1.088E-09

     Pert. #  1: Fermi energy shift (Ry) =    -2.6193E-02    -1.6544E-24

      iter #   4 total cpu time :  6271.2 secs   av.it.:  17.4
      thresh= 3.299E-06 alpha_mix =  0.300 |ddv_scf|^2 =  1.172E-10

     Pert. #  1: Fermi energy shift (Ry) =    -2.5723E-02     2.5849E-26

      iter #   5 total cpu time :  6317.3 secs   av.it.:  17.8
      thresh= 1.082E-06 alpha_mix =  0.300 |ddv_scf|^2 =  5.112E-12

     Pert. #  1: Fermi energy shift (Ry) =    -2.5742E-02     5.1699E-26

      iter #   6 total cpu time :  6363.7 secs   av.it.:  17.5
      thresh= 2.261E-07 alpha_mix =  0.300 |ddv_scf|^2 =  3.271E-13

     Pert. #  1: Fermi energy shift (Ry) =    -2.5723E-02    -2.5849E-26

      iter #   7 total cpu time :  6407.3 secs   av.it.:  16.6
      thresh= 5.719E-08 alpha_mix =  0.300 |ddv_scf|^2 =  8.942E-14

     Pert. #  1: Fermi energy shift (Ry) =    -2.5715E-02    -6.4623E-27

      iter #   8 total cpu time :  6453.5 secs   av.it.:  17.7
      thresh= 2.990E-08 alpha_mix =  0.300 |ddv_scf|^2 =  2.396E-15

     End of self-consistent calculation

     Convergence has been achieved 


     Representation #  19 mode #  19

     Self-consistent Calculation

     Pert. #  1: Fermi energy shift (Ry) =     7.9380E-03     0.0000E+00

      iter #   1 total cpu time :  6480.8 secs   av.it.:   6.2
      thresh= 1.000E-02 alpha_mix =  0.300 |ddv_scf|^2 =  1.937E-08

     Pert. #  1: Fermi energy shift (Ry) =     5.3715E-03     0.0000E+00

      iter #   2 total cpu time :  6524.2 secs   av.it.:  16.0
      thresh= 1.392E-05 alpha_mix =  0.300 |ddv_scf|^2 =  6.316E-09

     Pert. #  1: Fermi energy shift (Ry) =     4.3037E-03     0.0000E+00

      iter #   3 total cpu time :  6568.0 secs   av.it.:  16.7
      thresh= 7.947E-06 alpha_mix =  0.300 |ddv_scf|^2 =  3.521E-10

     Pert. #  1: Fermi energy shift (Ry) =     4.8141E-03     0.0000E+00

      iter #   4 total cpu time :  6612.6 secs   av.it.:  17.0
      thresh= 1.876E-06 alpha_mix =  0.300 |ddv_scf|^2 =  2.033E-11

     Pert. #  1: Fermi energy shift (Ry) =     4.5603E-03     0.0000E+00

      iter #   5 total cpu time :  6657.5 secs   av.it.:  17.1
      thresh= 4.508E-07 alpha_mix =  0.300 |ddv_scf|^2 =  3.804E-12

     Pert. #  1: Fermi energy shift (Ry) =     4.6357E-03     0.0000E+00

      iter #   6 total cpu time :  6704.5 secs   av.it.:  17.6
      thresh= 1.950E-07 alpha_mix =  0.300 |ddv_scf|^2 =  2.508E-13

     Pert. #  1: Fermi energy shift (Ry) =     4.6268E-03     0.0000E+00

      iter #   7 total cpu time :  6748.8 secs   av.it.:  16.7
      thresh= 5.008E-08 alpha_mix =  0.300 |ddv_scf|^2 =  3.798E-14

     Pert. #  1: Fermi energy shift (Ry) =     4.6292E-03     0.0000E+00

      iter #   8 total cpu time :  6794.8 secs   av.it.:  17.4
      thresh= 1.949E-08 alpha_mix =  0.300 |ddv_scf|^2 =  1.848E-15

     End of self-consistent calculation

     Convergence has been achieved 


     Representation #  20 mode #  20

     Self-consistent Calculation

     Pert. #  1: Fermi energy shift (Ry) =    -2.1524E-03     8.4703E-22

      iter #   1 total cpu time :  6823.6 secs   av.it.:   7.0
      thresh= 1.000E-02 alpha_mix =  0.300 |ddv_scf|^2 =  3.318E-08

     Pert. #  1: Fermi energy shift (Ry) =     2.6865E-03    -3.3087E-24

      iter #   2 total cpu time :  6867.5 secs   av.it.:  16.2
      thresh= 1.821E-05 alpha_mix =  0.300 |ddv_scf|^2 =  9.199E-09

     Pert. #  1: Fermi energy shift (Ry) =     2.0537E-03     8.2718E-25

      iter #   3 total cpu time :  6912.7 secs   av.it.:  17.2
      thresh= 9.591E-06 alpha_mix =  0.300 |ddv_scf|^2 =  3.321E-10

     Pert. #  1: Fermi energy shift (Ry) =     4.3694E-04     6.4623E-27

      iter #   4 total cpu time :  6957.7 secs   av.it.:  17.1
      thresh= 1.822E-06 alpha_mix =  0.300 |ddv_scf|^2 =  5.820E-11

     Pert. #  1: Fermi energy shift (Ry) =     1.1725E-05     2.0680E-25

      iter #   5 total cpu time :  7003.1 secs   av.it.:  17.3
      thresh= 7.629E-07 alpha_mix =  0.300 |ddv_scf|^2 =  3.541E-12

     Pert. #  1: Fermi energy shift (Ry) =     2.8741E-05    -2.5849E-26

      iter #   6 total cpu time :  7047.5 secs   av.it.:  16.5
      thresh= 1.882E-07 alpha_mix =  0.300 |ddv_scf|^2 =  6.988E-13

     Pert. #  1: Fermi energy shift (Ry) =     9.9070E-05    -1.2925E-26

      iter #   7 total cpu time :  7093.4 secs   av.it.:  17.4
      thresh= 8.359E-08 alpha_mix =  0.300 |ddv_scf|^2 =  3.406E-14

     Pert. #  1: Fermi energy shift (Ry) =     1.0763E-04    -6.4623E-27

      iter #   8 total cpu time :  7137.2 secs   av.it.:  16.7
      thresh= 1.846E-08 alpha_mix =  0.300 |ddv_scf|^2 =  8.759E-15

     End of self-consistent calculation

     Convergence has been achieved 


     Representation #  21 mode #  21

     Self-consistent Calculation

     Pert. #  1: Fermi energy shift (Ry) =     5.8064E-02    -3.3881E-21

      iter #   1 total cpu time :  7168.0 secs   av.it.:   7.9
      thresh= 1.000E-02 alpha_mix =  0.300 |ddv_scf|^2 =  2.052E-07

     Pert. #  1: Fermi energy shift (Ry) =     3.5819E-02     6.6174E-24

      iter #   2 total cpu time :  7211.8 secs   av.it.:  16.2
      thresh= 4.529E-05 alpha_mix =  0.300 |ddv_scf|^2 =  1.444E-08

     Pert. #  1: Fermi energy shift (Ry) =     3.1362E-02     3.3087E-24

      iter #   3 total cpu time :  7256.2 secs   av.it.:  16.8
      thresh= 1.202E-05 alpha_mix =  0.300 |ddv_scf|^2 =  1.007E-09

     Pert. #  1: Fermi energy shift (Ry) =     3.1657E-02    -1.0340E-25

      iter #   4 total cpu time :  7303.0 secs   av.it.:  17.9
      thresh= 3.173E-06 alpha_mix =  0.300 |ddv_scf|^2 =  5.680E-11

     Pert. #  1: Fermi energy shift (Ry) =     3.1174E-02     4.1359E-25

      iter #   5 total cpu time :  7348.8 secs   av.it.:  17.4
      thresh= 7.537E-07 alpha_mix =  0.300 |ddv_scf|^2 =  8.260E-12

     Pert. #  1: Fermi energy shift (Ry) =     3.1001E-02     1.0340E-25

      iter #   6 total cpu time :  7396.3 secs   av.it.:  17.7
      thresh= 2.874E-07 alpha_mix =  0.300 |ddv_scf|^2 =  4.811E-13

     Pert. #  1: Fermi energy shift (Ry) =     3.0989E-02    -5.1699E-26

      iter #   7 total cpu time :  7439.2 secs   av.it.:  16.1
      thresh= 6.936E-08 alpha_mix =  0.300 |ddv_scf|^2 =  1.553E-13

     Pert. #  1: Fermi energy shift (Ry) =     3.0992E-02    -1.2925E-26

      iter #   8 total cpu time :  7485.2 secs   av.it.:  17.5
      thresh= 3.941E-08 alpha_mix =  0.300 |ddv_scf|^2 =  6.921E-15

     End of self-consistent calculation

     Convergence has been achieved 


     Representation #  22 mode #  22

     Self-consistent Calculation

     Pert. #  1: Fermi energy shift (Ry) =    -8.2108E-03     0.0000E+00

      iter #   1 total cpu time :  7515.8 secs   av.it.:   7.7
      thresh= 1.000E-02 alpha_mix =  0.300 |ddv_scf|^2 =  3.054E-08

     Pert. #  1: Fermi energy shift (Ry) =    -4.4826E-03     0.0000E+00

      iter #   2 total cpu time :  7560.1 secs   av.it.:  16.3
      thresh= 1.748E-05 alpha_mix =  0.300 |ddv_scf|^2 =  9.168E-09

     Pert. #  1: Fermi energy shift (Ry) =    -3.5856E-03     0.0000E+00

      iter #   3 total cpu time :  7606.0 secs   av.it.:  17.4
      thresh= 9.575E-06 alpha_mix =  0.300 |ddv_scf|^2 =  3.155E-10

     Pert. #  1: Fermi energy shift (Ry) =    -4.0722E-03     0.0000E+00

      iter #   4 total cpu time :  7652.1 secs   av.it.:  17.5
      thresh= 1.776E-06 alpha_mix =  0.300 |ddv_scf|^2 =  3.444E-11

     Pert. #  1: Fermi energy shift (Ry) =    -3.9272E-03     0.0000E+00

      iter #   5 total cpu time :  7698.1 secs   av.it.:  17.4
      thresh= 5.869E-07 alpha_mix =  0.300 |ddv_scf|^2 =  3.794E-12

     Pert. #  1: Fermi energy shift (Ry) =    -3.9247E-03     0.0000E+00

      iter #   6 total cpu time :  7744.0 secs   av.it.:  17.0
      thresh= 1.948E-07 alpha_mix =  0.300 |ddv_scf|^2 =  2.597E-13

     Pert. #  1: Fermi energy shift (Ry) =    -3.9253E-03     0.0000E+00

      iter #   7 total cpu time :  7788.9 secs   av.it.:  17.0
      thresh= 5.096E-08 alpha_mix =  0.300 |ddv_scf|^2 =  4.154E-14

     Pert. #  1: Fermi energy shift (Ry) =    -3.9244E-03     0.0000E+00

      iter #   8 total cpu time :  7832.7 secs   av.it.:  16.6
      thresh= 2.038E-08 alpha_mix =  0.300 |ddv_scf|^2 =  8.778E-15

     End of self-consistent calculation

     Convergence has been achieved 


     Representation #  23 mode #  23

     Self-consistent Calculation

     Pert. #  1: Fermi energy shift (Ry) =    -2.9361E-02    -3.3881E-21

      iter #   1 total cpu time :  7863.9 secs   av.it.:   7.9
      thresh= 1.000E-02 alpha_mix =  0.300 |ddv_scf|^2 =  3.527E-08

     Pert. #  1: Fermi energy shift (Ry) =    -2.4274E-02     4.1359E-25

      iter #   2 total cpu time :  7908.5 secs   av.it.:  16.6
      thresh= 1.878E-05 alpha_mix =  0.300 |ddv_scf|^2 =  9.407E-09

     Pert. #  1: Fermi energy shift (Ry) =    -2.4753E-02     1.6544E-24

      iter #   3 total cpu time :  7954.3 secs   av.it.:  17.5
      thresh= 9.699E-06 alpha_mix =  0.300 |ddv_scf|^2 =  5.390E-10

     Pert. #  1: Fermi energy shift (Ry) =    -2.5977E-02     2.0680E-25

      iter #   4 total cpu time :  8000.9 secs   av.it.:  17.8
      thresh= 2.322E-06 alpha_mix =  0.300 |ddv_scf|^2 =  4.430E-11

     Pert. #  1: Fermi energy shift (Ry) =    -2.5953E-02    -1.2925E-26

      iter #   5 total cpu time :  8047.3 secs   av.it.:  17.8
      thresh= 6.655E-07 alpha_mix =  0.300 |ddv_scf|^2 =  3.958E-12

     Pert. #  1: Fermi energy shift (Ry) =    -2.5943E-02     1.2925E-26

      iter #   6 total cpu time :  8094.1 secs   av.it.:  17.6
      thresh= 1.989E-07 alpha_mix =  0.300 |ddv_scf|^2 =  3.357E-13

     Pert. #  1: Fermi energy shift (Ry) =    -2.5924E-02    -1.2925E-26

      iter #   7 total cpu time :  8138.5 secs   av.it.:  17.0
      thresh= 5.794E-08 alpha_mix =  0.300 |ddv_scf|^2 =  6.275E-14

     Pert. #  1: Fermi energy shift (Ry) =    -2.5911E-02    -1.6156E-27

      iter #   8 total cpu time :  8183.8 secs   av.it.:  17.3
      thresh= 2.505E-08 alpha_mix =  0.300 |ddv_scf|^2 =  7.804E-15

     End of self-consistent calculation

     Convergence has been achieved 


     Representation #  24 mode #  24

     Self-consistent Calculation

     Pert. #  1: Fermi energy shift (Ry) =    -5.9651E-02    -6.7763E-21

      iter #   1 total cpu time :  8214.6 secs   av.it.:   7.7
      thresh= 1.000E-02 alpha_mix =  0.300 |ddv_scf|^2 =  2.019E-07

     Pert. #  1: Fermi energy shift (Ry) =    -3.0022E-02    -1.3235E-23

      iter #   2 total cpu time :  8258.0 secs   av.it.:  16.1
      thresh= 4.493E-05 alpha_mix =  0.300 |ddv_scf|^2 =  1.502E-08

     Pert. #  1: Fermi energy shift (Ry) =    -2.6059E-02    -6.6174E-24

      iter #   3 total cpu time :  8302.1 secs   av.it.:  16.7
      thresh= 1.225E-05 alpha_mix =  0.300 |ddv_scf|^2 =  1.217E-09

     Pert. #  1: Fermi energy shift (Ry) =    -2.7239E-02     8.2718E-25

      iter #   4 total cpu time :  8347.8 secs   av.it.:  17.4
      thresh= 3.489E-06 alpha_mix =  0.300 |ddv_scf|^2 =  1.196E-10

     Pert. #  1: Fermi energy shift (Ry) =    -2.6875E-02    -2.0680E-25

      iter #   5 total cpu time :  8393.1 secs   av.it.:  17.3
      thresh= 1.093E-06 alpha_mix =  0.300 |ddv_scf|^2 =  1.118E-11

     Pert. #  1: Fermi energy shift (Ry) =    -2.6609E-02    -1.0340E-25

      iter #   6 total cpu time :  8440.1 secs   av.it.:  17.7
      thresh= 3.343E-07 alpha_mix =  0.300 |ddv_scf|^2 =  6.187E-13

     Pert. #  1: Fermi energy shift (Ry) =    -2.6579E-02     1.2925E-26

      iter #   7 total cpu time :  8483.0 secs   av.it.:  16.3
      thresh= 7.866E-08 alpha_mix =  0.300 |ddv_scf|^2 =  2.124E-13

     Pert. #  1: Fermi energy shift (Ry) =    -2.6561E-02    -3.2312E-27

      iter #   8 total cpu time :  8528.6 secs   av.it.:  17.5
      thresh= 4.609E-08 alpha_mix =  0.300 |ddv_scf|^2 =  8.460E-15

     End of self-consistent calculation

     Convergence has been achieved 


     Representation #  25 mode #  25

     Self-consistent Calculation

     Pert. #  1: Fermi energy shift (Ry) =    -8.0361E-03     0.0000E+00

      iter #   1 total cpu time :  8558.4 secs   av.it.:   7.4
      thresh= 1.000E-02 alpha_mix =  0.300 |ddv_scf|^2 =  2.592E-08

     Pert. #  1: Fermi energy shift (Ry) =    -3.7535E-03     0.0000E+00

      iter #   2 total cpu time :  8602.8 secs   av.it.:  16.5
      thresh= 1.610E-05 alpha_mix =  0.300 |ddv_scf|^2 =  7.727E-09

     Pert. #  1: Fermi energy shift (Ry) =    -2.9407E-03     0.0000E+00

      iter #   3 total cpu time :  8647.9 secs   av.it.:  17.1
      thresh= 8.790E-06 alpha_mix =  0.300 |ddv_scf|^2 =  4.372E-10

     Pert. #  1: Fermi energy shift (Ry) =    -3.3362E-03     0.0000E+00

      iter #   4 total cpu time :  8693.6 secs   av.it.:  17.4
      thresh= 2.091E-06 alpha_mix =  0.300 |ddv_scf|^2 =  3.422E-11

     Pert. #  1: Fermi energy shift (Ry) =    -3.1607E-03     0.0000E+00

      iter #   5 total cpu time :  8739.3 secs   av.it.:  17.4
      thresh= 5.850E-07 alpha_mix =  0.300 |ddv_scf|^2 =  2.839E-12

     Pert. #  1: Fermi energy shift (Ry) =    -3.1806E-03     0.0000E+00

      iter #   6 total cpu time :  8784.1 secs   av.it.:  16.7
      thresh= 1.685E-07 alpha_mix =  0.300 |ddv_scf|^2 =  2.013E-13

     Pert. #  1: Fermi energy shift (Ry) =    -3.1781E-03     0.0000E+00

      iter #   7 total cpu time :  8828.8 secs   av.it.:  17.2
      thresh= 4.487E-08 alpha_mix =  0.300 |ddv_scf|^2 =  2.017E-14

     Pert. #  1: Fermi energy shift (Ry) =    -3.1762E-03     0.0000E+00

      iter #   8 total cpu time :  8872.5 secs   av.it.:  16.7
      thresh= 1.420E-08 alpha_mix =  0.300 |ddv_scf|^2 =  5.443E-15

     End of self-consistent calculation

     Convergence has been achieved 


     Representation #  26 mode #  26

     Self-consistent Calculation

     Pert. #  1: Fermi energy shift (Ry) =     1.6029E-02     8.4703E-22

      iter #   1 total cpu time :  8901.1 secs   av.it.:   6.9
      thresh= 1.000E-02 alpha_mix =  0.300 |ddv_scf|^2 =  2.586E-08

     Pert. #  1: Fermi energy shift (Ry) =     1.7210E-02    -1.6544E-24

      iter #   2 total cpu time :  8944.3 secs   av.it.:  16.0
      thresh= 1.608E-05 alpha_mix =  0.300 |ddv_scf|^2 =  7.970E-09

     Pert. #  1: Fermi energy shift (Ry) =     1.6936E-02     1.6544E-24

      iter #   3 total cpu time :  8989.0 secs   av.it.:  17.2
      thresh= 8.928E-06 alpha_mix =  0.300 |ddv_scf|^2 =  1.505E-10

     Pert. #  1: Fermi energy shift (Ry) =     1.6717E-02    -4.1359E-25

      iter #   4 total cpu time :  9033.1 secs   av.it.:  16.8
      thresh= 1.227E-06 alpha_mix =  0.300 |ddv_scf|^2 =  2.838E-11

     Pert. #  1: Fermi energy shift (Ry) =     1.6887E-02     1.0340E-25

      iter #   5 total cpu time :  9078.3 secs   av.it.:  17.4
      thresh= 5.327E-07 alpha_mix =  0.300 |ddv_scf|^2 =  1.687E-12

     Pert. #  1: Fermi energy shift (Ry) =     1.6815E-02     6.4623E-27

      iter #   6 total cpu time :  9123.4 secs   av.it.:  16.9
      thresh= 1.299E-07 alpha_mix =  0.300 |ddv_scf|^2 =  3.055E-13

     Pert. #  1: Fermi energy shift (Ry) =     1.6771E-02     6.4623E-27

      iter #   7 total cpu time :  9169.2 secs   av.it.:  17.6
      thresh= 5.527E-08 alpha_mix =  0.300 |ddv_scf|^2 =  2.388E-14

     Pert. #  1: Fermi energy shift (Ry) =     1.6767E-02     6.4623E-27

      iter #   8 total cpu time :  9212.7 secs   av.it.:  16.6
      thresh= 1.545E-08 alpha_mix =  0.300 |ddv_scf|^2 =  6.546E-15

     End of self-consistent calculation

     Convergence has been achieved 


     Representation #  27 mode #  27

     Self-consistent Calculation

     Pert. #  1: Fermi energy shift (Ry) =    -4.9691E-02     6.7763E-21

      iter #   1 total cpu time :  9243.3 secs   av.it.:   7.8
      thresh= 1.000E-02 alpha_mix =  0.300 |ddv_scf|^2 =  2.230E-07

     Pert. #  1: Fermi energy shift (Ry) =    -1.6432E-02     1.3235E-23

      iter #   2 total cpu time :  9286.8 secs   av.it.:  16.2
      thresh= 4.722E-05 alpha_mix =  0.300 |ddv_scf|^2 =  1.167E-08

     Pert. #  1: Fermi energy shift (Ry) =    -1.4144E-02     3.3087E-24

      iter #   3 total cpu time :  9330.0 secs   av.it.:  16.6
      thresh= 1.080E-05 alpha_mix =  0.300 |ddv_scf|^2 =  1.319E-09

     Pert. #  1: Fermi energy shift (Ry) =    -1.6146E-02    -1.6544E-24

      iter #   4 total cpu time :  9375.9 secs   av.it.:  17.7
      thresh= 3.631E-06 alpha_mix =  0.300 |ddv_scf|^2 =  8.676E-11

     Pert. #  1: Fermi energy shift (Ry) =    -1.5548E-02    -8.2718E-25

      iter #   5 total cpu time :  9421.7 secs   av.it.:  17.6
      thresh= 9.315E-07 alpha_mix =  0.300 |ddv_scf|^2 =  5.459E-12

     Pert. #  1: Fermi energy shift (Ry) =    -1.5497E-02    -2.0680E-25

      iter #   6 total cpu time :  9467.3 secs   av.it.:  17.0
      thresh= 2.336E-07 alpha_mix =  0.300 |ddv_scf|^2 =  6.733E-13

     Pert. #  1: Fermi energy shift (Ry) =    -1.5478E-02    -1.2925E-26

      iter #   7 total cpu time :  9511.0 secs   av.it.:  16.7
      thresh= 8.206E-08 alpha_mix =  0.300 |ddv_scf|^2 =  1.357E-13

     Pert. #  1: Fermi energy shift (Ry) =    -1.5471E-02    -6.4623E-27

      iter #   8 total cpu time :  9556.3 secs   av.it.:  17.4
      thresh= 3.684E-08 alpha_mix =  0.300 |ddv_scf|^2 =  9.975E-15

     End of self-consistent calculation

     Convergence has been achieved 


     Representation #  28 mode #  28

     Self-consistent Calculation

     Pert. #  1: Fermi energy shift (Ry) =    -6.5218E-03     0.0000E+00

      iter #   1 total cpu time :  9583.7 secs   av.it.:   6.4
      thresh= 1.000E-02 alpha_mix =  0.300 |ddv_scf|^2 =  2.180E-08

     Pert. #  1: Fermi energy shift (Ry) =    -2.3936E-03     0.0000E+00

      iter #   2 total cpu time :  9626.7 secs   av.it.:  15.9
      thresh= 1.477E-05 alpha_mix =  0.300 |ddv_scf|^2 =  6.837E-09

     Pert. #  1: Fermi energy shift (Ry) =    -1.7037E-03     0.0000E+00

      iter #   3 total cpu time :  9670.5 secs   av.it.:  16.6
      thresh= 8.268E-06 alpha_mix =  0.300 |ddv_scf|^2 =  4.728E-10

     Pert. #  1: Fermi energy shift (Ry) =    -2.4060E-03     0.0000E+00

      iter #   4 total cpu time :  9715.0 secs   av.it.:  17.0
      thresh= 2.174E-06 alpha_mix =  0.300 |ddv_scf|^2 =  2.430E-11

     Pert. #  1: Fermi energy shift (Ry) =    -2.1614E-03     0.0000E+00

      iter #   5 total cpu time :  9760.2 secs   av.it.:  17.4
      thresh= 4.929E-07 alpha_mix =  0.300 |ddv_scf|^2 =  1.579E-12

     Pert. #  1: Fermi energy shift (Ry) =    -2.2954E-03     0.0000E+00

      iter #   6 total cpu time :  9806.7 secs   av.it.:  17.5
      thresh= 1.256E-07 alpha_mix =  0.300 |ddv_scf|^2 =  2.913E-13

     Pert. #  1: Fermi energy shift (Ry) =    -2.2735E-03     0.0000E+00

      iter #   7 total cpu time :  9850.7 secs   av.it.:  16.8
      thresh= 5.397E-08 alpha_mix =  0.300 |ddv_scf|^2 =  2.331E-14

     Pert. #  1: Fermi energy shift (Ry) =    -2.2726E-03     0.0000E+00

      iter #   8 total cpu time :  9894.7 secs   av.it.:  16.7
      thresh= 1.527E-08 alpha_mix =  0.300 |ddv_scf|^2 =  4.410E-15

     End of self-consistent calculation

     Convergence has been achieved 


     Representation #  29 mode #  29

     Self-consistent Calculation

     Pert. #  1: Fermi energy shift (Ry) =    -5.5231E-03    -1.0588E-22

      iter #   1 total cpu time :  9923.7 secs   av.it.:   7.2
      thresh= 1.000E-02 alpha_mix =  0.300 |ddv_scf|^2 =  3.277E-08

     Pert. #  1: Fermi energy shift (Ry) =    -4.5331E-03     6.6174E-24

      iter #   2 total cpu time :  9967.4 secs   av.it.:  16.2
      thresh= 1.810E-05 alpha_mix =  0.300 |ddv_scf|^2 =  9.678E-09

     Pert. #  1: Fermi energy shift (Ry) =    -4.3950E-03     1.6544E-24

      iter #   3 total cpu time : 10012.8 secs   av.it.:  17.4
      thresh= 9.838E-06 alpha_mix =  0.300 |ddv_scf|^2 =  2.338E-10

     Pert. #  1: Fermi energy shift (Ry) =    -4.8685E-03     8.2718E-25

      iter #   4 total cpu time : 10057.5 secs   av.it.:  17.0
      thresh= 1.529E-06 alpha_mix =  0.300 |ddv_scf|^2 =  3.508E-11

     Pert. #  1: Fermi energy shift (Ry) =    -5.2233E-03     2.0680E-25

      iter #   5 total cpu time : 10103.3 secs   av.it.:  17.6
      thresh= 5.923E-07 alpha_mix =  0.300 |ddv_scf|^2 =  3.552E-12

     Pert. #  1: Fermi energy shift (Ry) =    -5.4238E-03    -2.5849E-26

      iter #   6 total cpu time : 10149.8 secs   av.it.:  17.5
      thresh= 1.885E-07 alpha_mix =  0.300 |ddv_scf|^2 =  1.318E-13

     Pert. #  1: Fermi energy shift (Ry) =    -5.4209E-03    -6.4623E-27

      iter #   7 total cpu time : 10194.2 secs   av.it.:  16.9
      thresh= 3.631E-08 alpha_mix =  0.300 |ddv_scf|^2 =  3.352E-14

     Pert. #  1: Fermi energy shift (Ry) =    -5.4023E-03     3.2312E-27

      iter #   8 total cpu time : 10239.8 secs   av.it.:  17.4
      thresh= 1.831E-08 alpha_mix =  0.300 |ddv_scf|^2 =  2.302E-15

     End of self-consistent calculation

     Convergence has been achieved 


     Representation #  30 mode #  30

     Self-consistent Calculation

     Pert. #  1: Fermi energy shift (Ry) =    -3.2143E-02    -3.3881E-21

      iter #   1 total cpu time : 10270.4 secs   av.it.:   7.8
      thresh= 1.000E-02 alpha_mix =  0.300 |ddv_scf|^2 =  2.478E-07

     Pert. #  1: Fermi energy shift (Ry) =     9.3943E-04    -2.0680E-25

      iter #   2 total cpu time : 10313.9 secs   av.it.:  16.2
      thresh= 4.978E-05 alpha_mix =  0.300 |ddv_scf|^2 =  1.225E-08

     Pert. #  1: Fermi energy shift (Ry) =     1.8267E-03     8.2718E-25

      iter #   3 total cpu time : 10357.5 secs   av.it.:  16.6
      thresh= 1.107E-05 alpha_mix =  0.300 |ddv_scf|^2 =  1.433E-09

     Pert. #  1: Fermi energy shift (Ry) =    -2.0436E-03     8.2718E-25

      iter #   4 total cpu time : 10404.2 secs   av.it.:  17.8
      thresh= 3.785E-06 alpha_mix =  0.300 |ddv_scf|^2 =  8.492E-11

     Pert. #  1: Fermi energy shift (Ry) =    -2.2130E-03    -5.1699E-26

      iter #   5 total cpu time : 10449.9 secs   av.it.:  17.6
      thresh= 9.215E-07 alpha_mix =  0.300 |ddv_scf|^2 =  7.982E-12

     Pert. #  1: Fermi energy shift (Ry) =    -2.3078E-03     5.1699E-26

      iter #   6 total cpu time : 10496.0 secs   av.it.:  17.1
      thresh= 2.825E-07 alpha_mix =  0.300 |ddv_scf|^2 =  7.861E-13

     Pert. #  1: Fermi energy shift (Ry) =    -2.3081E-03     1.2925E-26

      iter #   7 total cpu time : 10539.5 secs   av.it.:  16.5
      thresh= 8.866E-08 alpha_mix =  0.300 |ddv_scf|^2 =  1.729E-13

     Pert. #  1: Fermi energy shift (Ry) =    -2.2934E-03     6.4623E-27

      iter #   8 total cpu time : 10585.0 secs   av.it.:  17.5
      thresh= 4.158E-08 alpha_mix =  0.300 |ddv_scf|^2 =  9.121E-15

     End of self-consistent calculation

     Convergence has been achieved 

     Number of q in the star =    1
     List of q in the star:
          1   0.000000000   0.000000000   0.000000000

     Diagonalizing the dynamical matrix

     q = (    0.000000000   0.000000000   0.000000000 ) 

 **************************************************************************
     freq (    1) =      -0.499307 [THz] =     -16.655073 [cm-1]
     freq (    2) =      -0.151968 [THz] =      -5.069100 [cm-1]
     freq (    3) =       0.261911 [THz] =       8.736394 [cm-1]
     freq (    4) =       9.460832 [THz] =     315.579395 [cm-1]
     freq (    5) =      16.928859 [THz] =     564.685950 [cm-1]
     freq (    6) =      19.483866 [THz] =     649.911825 [cm-1]
     freq (    7) =      22.066607 [THz] =     736.062778 [cm-1]
     freq (    8) =      26.543800 [THz] =     885.405857 [cm-1]
     freq (    9) =      27.950195 [THz] =     932.318161 [cm-1]
     freq (   10) =      28.388661 [THz] =     946.943811 [cm-1]
     freq (   11) =      34.817068 [THz] =    1161.372371 [cm-1]
     freq (   12) =      35.051160 [THz] =    1169.180835 [cm-1]
     freq (   13) =      36.450313 [THz] =    1215.851560 [cm-1]
     freq (   14) =      37.591747 [THz] =    1253.925696 [cm-1]
     freq (   15) =      37.959035 [THz] =    1266.177120 [cm-1]
     freq (   16) =      40.600416 [THz] =    1354.284096 [cm-1]
     freq (   17) =      41.456598 [THz] =    1382.843260 [cm-1]
     freq (   18) =      43.130725 [THz] =    1438.686112 [cm-1]
     freq (   19) =      44.417264 [THz] =    1481.600436 [cm-1]
     freq (   20) =      47.133692 [THz] =    1572.210722 [cm-1]
     freq (   21) =      47.408378 [THz] =    1581.373273 [cm-1]
     freq (   22) =      51.404030 [THz] =    1714.653870 [cm-1]
     freq (   23) =      52.023323 [THz] =    1735.311282 [cm-1]
     freq (   24) =      52.720332 [THz] =    1758.560968 [cm-1]
     freq (   25) =      56.838569 [THz] =    1895.930594 [cm-1]
     freq (   26) =      60.199468 [THz] =    2008.038095 [cm-1]
     freq (   27) =      60.770018 [THz] =    2027.069596 [cm-1]
     freq (   28) =      61.571521 [THz] =    2053.804880 [cm-1]
     freq (   29) =      89.796920 [THz] =    2995.302830 [cm-1]
     freq (   30) =     103.413451 [THz] =    3449.501415 [cm-1]
 **************************************************************************

     Mode symmetry, C_1 (1)     point group:

     freq (   1-   1) =        -16.7  [cm-1]   --> A               I+R
     freq (   2-   2) =         -5.1  [cm-1]   --> A               I+R
     freq (   3-   3) =          8.7  [cm-1]   --> A               I+R
     freq (   4-   4) =        315.6  [cm-1]   --> A               I+R
     freq (   5-   5) =        564.7  [cm-1]   --> A               I+R
     freq (   6-   6) =        649.9  [cm-1]   --> A               I+R
     freq (   7-   7) =        736.1  [cm-1]   --> A               I+R
     freq (   8-   8) =        885.4  [cm-1]   --> A               I+R
     freq (   9-   9) =        932.3  [cm-1]   --> A               I+R
     freq (  10-  10) =        946.9  [cm-1]   --> A               I+R
     freq (  11-  11) =       1161.4  [cm-1]   --> A               I+R
     freq (  12-  12) =       1169.2  [cm-1]   --> A               I+R
     freq (  13-  13) =       1215.9  [cm-1]   --> A               I+R
     freq (  14-  14) =       1253.9  [cm-1]   --> A               I+R
     freq (  15-  15) =       1266.2  [cm-1]   --> A               I+R
     freq (  16-  16) =       1354.3  [cm-1]   --> A               I+R
     freq (  17-  17) =       1382.8  [cm-1]   --> A               I+R
     freq (  18-  18) =       1438.7  [cm-1]   --> A               I+R
     freq (  19-  19) =       1481.6  [cm-1]   --> A               I+R
     freq (  20-  20) =       1572.2  [cm-1]   --> A               I+R
     freq (  21-  21) =       1581.4  [cm-1]   --> A               I+R
     freq (  22-  22) =       1714.7  [cm-1]   --> A               I+R
     freq (  23-  23) =       1735.3  [cm-1]   --> A               I+R
     freq (  24-  24) =       1758.6  [cm-1]   --> A               I+R
     freq (  25-  25) =       1895.9  [cm-1]   --> A               I+R
     freq (  26-  26) =       2008.0  [cm-1]   --> A               I+R
     freq (  27-  27) =       2027.1  [cm-1]   --> A               I+R
     freq (  28-  28) =       2053.8  [cm-1]   --> A               I+R
     freq (  29-  29) =       2995.3  [cm-1]   --> A               I+R
     freq (  30-  30) =       3449.5  [cm-1]   --> A               I+R

     Gaussian Broadening:   0.005 Ry, ngauss=   0
     DOS =  1.091910 states/spin/Ry/Unit Cell at Ef= 14.355069 eV
     double delta at Ef =185.054897
     lambda(    1)=  0.0000   gamma=    0.00 GHz
     lambda(    2)=  0.0000   gamma=    0.00 GHz
     lambda(    3)=  0.0000   gamma=    0.00 GHz
     lambda(    4)=  1.1134   gamma=  103.91 GHz
     lambda(    5)=  0.4429   gamma=  132.35 GHz
     lambda(    6)=  0.3481   gamma=  137.79 GHz
     lambda(    7)=  1.2236   gamma=  621.25 GHz
     lambda(    8)=  1.1446   gamma=  840.89 GHz
     lambda(    9)=  0.7700   gamma=  627.19 GHz
     lambda(   10)=  0.1066   gamma=   89.62 GHz
     lambda(   11)=  0.2837   gamma=  358.61 GHz
     lambda(   12)=  0.3414   gamma=  437.32 GHz
     lambda(   13)=  0.2052   gamma=  284.25 GHz
     lambda(   14)=  0.1975   gamma=  291.04 GHz
     lambda(   15)=  0.1639   gamma=  246.27 GHz
     lambda(   16)=  0.3856   gamma=  662.81 GHz
     lambda(   17)=  0.1267   gamma=  227.09 GHz
     lambda(   18)=  0.2377   gamma=  461.05 GHz
     lambda(   19)=  0.2883   gamma=  593.17 GHz
     lambda(   20)=  0.0788   gamma=  182.57 GHz
     lambda(   21)=  0.0558   gamma=  130.85 GHz
     lambda(   22)=  0.1606   gamma=  442.47 GHz
     lambda(   23)=  0.0913   gamma=  257.59 GHz
     lambda(   24)=  0.1112   gamma=  322.18 GHz
     lambda(   25)=  0.0849   gamma=  285.93 GHz
     lambda(   26)=  0.3065   gamma= 1158.09 GHz
     lambda(   27)=  0.0885   gamma=  340.78 GHz
     lambda(   28)=  0.1372   gamma=  542.31 GHz
     lambda(   29)=  0.1289   gamma= 1083.67 GHz
     lambda(   30)=  0.1278   gamma= 1424.94 GHz

     Gaussian Broadening:   0.010 Ry, ngauss=   0
     DOS =  1.331424 states/spin/Ry/Unit Cell at Ef= 14.353631 eV
     double delta at Ef =109.048697
     lambda(    1)=  0.0000   gamma=    0.00 GHz
     lambda(    2)=  0.0000   gamma=    0.00 GHz
     lambda(    3)=  0.0000   gamma=    0.00 GHz
     lambda(    4)=  0.6911   gamma=   78.65 GHz
     lambda(    5)=  0.1878   gamma=   68.41 GHz
     lambda(    6)=  0.1613   gamma=   77.88 GHz
     lambda(    7)=  0.4340   gamma=  268.70 GHz
     lambda(    8)=  0.4329   gamma=  387.81 GHz
     lambda(    9)=  0.2656   gamma=  263.84 GHz
     lambda(   10)=  0.0533   gamma=   54.65 GHz
     lambda(   11)=  0.1119   gamma=  172.45 GHz
     lambda(   12)=  0.1585   gamma=  247.56 GHz
     lambda(   13)=  0.1031   gamma=  174.14 GHz
     lambda(   14)=  0.0819   gamma=  147.13 GHz
     lambda(   15)=  0.1108   gamma=  203.04 GHz
     lambda(   16)=  0.1702   gamma=  356.71 GHz
     lambda(   17)=  0.0719   gamma=  157.10 GHz
     lambda(   18)=  0.1120   gamma=  264.96 GHz
     lambda(   19)=  0.1197   gamma=  300.16 GHz
     lambda(   20)=  0.0410   gamma=  115.94 GHz
     lambda(   21)=  0.0434   gamma=  124.02 GHz
     lambda(   22)=  0.0911   gamma=  306.02 GHz
     lambda(   23)=  0.0699   gamma=  240.47 GHz
     lambda(   24)=  0.0806   gamma=  284.88 GHz
     lambda(   25)=  0.0439   gamma=  180.20 GHz
     lambda(   26)=  0.1576   gamma=  726.31 GHz
     lambda(   27)=  0.0482   gamma=  226.39 GHz
     lambda(   28)=  0.0978   gamma=  471.54 GHz
     lambda(   29)=  0.0742   gamma=  761.18 GHz
     lambda(   30)=  0.0570   gamma=  775.24 GHz

     Gaussian Broadening:   0.015 Ry, ngauss=   0
     DOS =  1.492686 states/spin/Ry/Unit Cell at Ef= 14.353587 eV
     double delta at Ef = 79.875382
     lambda(    1)=  0.0000   gamma=    0.00 GHz
     lambda(    2)=  0.0000   gamma=    0.00 GHz
     lambda(    3)=  0.0000   gamma=    0.00 GHz
     lambda(    4)=  0.4675   gamma=   59.65 GHz
     lambda(    5)=  0.1161   gamma=   47.42 GHz
     lambda(    6)=  0.1164   gamma=   63.00 GHz
     lambda(    7)=  0.2689   gamma=  186.61 GHz
     lambda(    8)=  0.2750   gamma=  276.22 GHz
     lambda(    9)=  0.1568   gamma=  174.58 GHz
     lambda(   10)=  0.0353   gamma=   40.50 GHz
     lambda(   11)=  0.0703   gamma=  121.50 GHz
     lambda(   12)=  0.0998   gamma=  174.75 GHz
     lambda(   13)=  0.0631   gamma=  119.55 GHz
     lambda(   14)=  0.0539   gamma=  108.60 GHz
     lambda(   15)=  0.0835   gamma=  171.43 GHz
     lambda(   16)=  0.1060   gamma=  248.98 GHz
     lambda(   17)=  0.0484   gamma=  118.49 GHz
     lambda(   18)=  0.0743   gamma=  196.90 GHz
     lambda(   19)=  0.0743   gamma=  208.84 GHz
     lambda(   20)=  0.0272   gamma=   86.17 GHz
     lambda(   21)=  0.0329   gamma=  105.52 GHz
     lambda(   22)=  0.0767   gamma=  288.91 GHz
     lambda(   23)=  0.0489   gamma=  188.61 GHz
     lambda(   24)=  0.0538   gamma=  213.19 GHz
     lambda(   25)=  0.0288   gamma=  132.67 GHz
     lambda(   26)=  0.1102   gamma=  569.15 GHz
     lambda(   27)=  0.0317   gamma=  167.09 GHz
     lambda(   28)=  0.0668   gamma=  361.07 GHz
     lambda(   29)=  0.0564   gamma=  647.73 GHz
     lambda(   30)=  0.0358   gamma=  546.40 GHz

     Gaussian Broadening:   0.020 Ry, ngauss=   0
     DOS =  1.527634 states/spin/Ry/Unit Cell at Ef= 14.355305 eV
     double delta at Ef = 63.015357
     lambda(    1)=  0.0000   gamma=    0.01 GHz
     lambda(    2)=  0.0000   gamma=    0.01 GHz
     lambda(    3)=  0.0000   gamma=    0.00 GHz
     lambda(    4)=  0.3641   gamma=   47.55 GHz
     lambda(    5)=  0.0898   gamma=   37.55 GHz
     lambda(    6)=  0.1003   gamma=   55.53 GHz
     lambda(    7)=  0.2096   gamma=  148.86 GHz
     lambda(    8)=  0.2142   gamma=  220.19 GHz
     lambda(    9)=  0.1215   gamma=  138.50 GHz
     lambda(   10)=  0.0287   gamma=   33.69 GHz
     lambda(   11)=  0.0547   gamma=   96.81 GHz
     lambda(   12)=  0.0781   gamma=  139.96 GHz
     lambda(   13)=  0.0467   gamma=   90.60 GHz
     lambda(   14)=  0.0434   gamma=   89.52 GHz
     lambda(   15)=  0.0710   gamma=  149.34 GHz
     lambda(   16)=  0.0810   gamma=  194.89 GHz
     lambda(   17)=  0.0394   gamma=   98.84 GHz
     lambda(   18)=  0.0589   gamma=  159.92 GHz
     lambda(   19)=  0.0562   gamma=  161.76 GHz
     lambda(   20)=  0.0215   gamma=   69.72 GHz
     lambda(   21)=  0.0286   gamma=   93.84 GHz
     lambda(   22)=  0.0683   gamma=  263.21 GHz
     lambda(   23)=  0.0392   gamma=  154.73 GHz
     lambda(   24)=  0.0424   gamma=  172.01 GHz
     lambda(   25)=  0.0228   gamma=  107.54 GHz
     lambda(   26)=  0.0874   gamma=  462.29 GHz
     lambda(   27)=  0.0254   gamma=  136.92 GHz
     lambda(   28)=  0.0528   gamma=  292.26 GHz
     lambda(   29)=  0.0475   gamma=  558.79 GHz
     lambda(   30)=  0.0275   gamma=  428.57 GHz

     Gaussian Broadening:   0.025 Ry, ngauss=   0
     DOS =  1.511096 states/spin/Ry/Unit Cell at Ef= 14.361231 eV
     double delta at Ef = 52.787776
     lambda(    1)=  0.0000   gamma=    0.03 GHz
     lambda(    2)=  0.0000   gamma=    0.03 GHz
     lambda(    3)=  0.0000   gamma=    0.02 GHz
     lambda(    4)=  0.3129   gamma=   40.41 GHz
     lambda(    5)=  0.0821   gamma=   33.93 GHz
     lambda(    6)=  0.0947   gamma=   51.89 GHz
     lambda(    7)=  0.1789   gamma=  125.68 GHz
     lambda(    8)=  0.1832   gamma=  186.22 GHz
     lambda(    9)=  0.1108   gamma=  124.87 GHz
     lambda(   10)=  0.0269   gamma=   31.31 GHz
     lambda(   11)=  0.0495   gamma=   86.53 GHz
     lambda(   12)=  0.0705   gamma=  124.91 GHz
     lambda(   13)=  0.0388   gamma=   74.36 GHz
     lambda(   14)=  0.0396   gamma=   80.73 GHz
     lambda(   15)=  0.0658   gamma=  136.92 GHz
     lambda(   16)=  0.0722   gamma=  171.79 GHz
     lambda(   17)=  0.0354   gamma=   87.69 GHz
     lambda(   18)=  0.0510   gamma=  136.85 GHz
     lambda(   19)=  0.0481   gamma=  136.85 GHz
     lambda(   20)=  0.0193   gamma=   61.93 GHz
     lambda(   21)=  0.0281   gamma=   91.19 GHz
     lambda(   22)=  0.0629   gamma=  239.76 GHz
     lambda(   23)=  0.0394   gamma=  153.72 GHz
     lambda(   24)=  0.0376   gamma=  150.65 GHz
     lambda(   25)=  0.0208   gamma=   96.84 GHz
     lambda(   26)=  0.0731   gamma=  382.19 GHz
     lambda(   27)=  0.0238   gamma=  126.61 GHz
     lambda(   28)=  0.0459   gamma=  251.11 GHz
     lambda(   29)=  0.0433   gamma=  504.02 GHz
     lambda(   30)=  0.0247   gamma=  380.50 GHz

     Gaussian Broadening:   0.030 Ry, ngauss=   0
     DOS =  1.506518 states/spin/Ry/Unit Cell at Ef= 14.369544 eV
     double delta at Ef = 46.806410
     lambda(    1)=  0.0000   gamma=    0.07 GHz
     lambda(    2)=  0.0000   gamma=    0.08 GHz
     lambda(    3)=  0.0000   gamma=    0.04 GHz
     lambda(    4)=  0.2833   gamma=   36.47 GHz
     lambda(    5)=  0.0829   gamma=   34.20 GHz
     lambda(    6)=  0.0937   gamma=   51.16 GHz
     lambda(    7)=  0.1602   gamma=  112.22 GHz
     lambda(    8)=  0.1653   gamma=  167.55 GHz
     lambda(    9)=  0.1099   gamma=  123.54 GHz
     lambda(   10)=  0.0276   gamma=   32.03 GHz
     lambda(   11)=  0.0502   gamma=   87.62 GHz
     lambda(   12)=  0.0686   gamma=  121.25 GHz
     lambda(   13)=  0.0344   gamma=   65.68 GHz
     lambda(   14)=  0.0385   gamma=   78.32 GHz
     lambda(   15)=  0.0640   gamma=  132.58 GHz
     lambda(   16)=  0.0701   gamma=  166.19 GHz
     lambda(   17)=  0.0328   gamma=   81.07 GHz
     lambda(   18)=  0.0456   gamma=  122.03 GHz
     lambda(   19)=  0.0445   gamma=  126.21 GHz
     lambda(   20)=  0.0189   gamma=   60.29 GHz
     lambda(   21)=  0.0310   gamma=  100.22 GHz
     lambda(   22)=  0.0597   gamma=  226.90 GHz
     lambda(   23)=  0.0436   gamma=  169.87 GHz
     lambda(   24)=  0.0356   gamma=  142.19 GHz
     lambda(   25)=  0.0209   gamma=   97.09 GHz
     lambda(   26)=  0.0625   gamma=  325.92 GHz
     lambda(   27)=  0.0239   gamma=  126.79 GHz
     lambda(   28)=  0.0419   gamma=  228.61 GHz
     lambda(   29)=  0.0428   gamma=  495.94 GHz
     lambda(   30)=  0.0252   gamma=  387.95 GHz

     Gaussian Broadening:   0.035 Ry, ngauss=   0
     DOS =  1.523941 states/spin/Ry/Unit Cell at Ef= 14.377891 eV
     double delta at Ef = 43.400039
     lambda(    1)=  0.0000   gamma=    0.11 GHz
     lambda(    2)=  0.0000   gamma=    0.13 GHz
     lambda(    3)=  0.0000   gamma=    0.08 GHz
     lambda(    4)=  0.2650   gamma=   34.52 GHz
     lambda(    5)=  0.0870   gamma=   36.30 GHz
     lambda(    6)=  0.0944   gamma=   52.17 GHz
     lambda(    7)=  0.1486   gamma=  105.30 GHz
     lambda(    8)=  0.1548   gamma=  158.75 GHz
     lambda(    9)=  0.1132   gamma=  128.70 GHz
     lambda(   10)=  0.0294   gamma=   34.44 GHz
     lambda(   11)=  0.0539   gamma=   95.14 GHz
     lambda(   12)=  0.0691   gamma=  123.60 GHz
     lambda(   13)=  0.0319   gamma=   61.64 GHz
     lambda(   14)=  0.0387   gamma=   79.55 GHz
     lambda(   15)=  0.0635   gamma=  133.22 GHz
     lambda(   16)=  0.0699   gamma=  167.58 GHz
     lambda(   17)=  0.0309   gamma=   77.17 GHz
     lambda(   18)=  0.0417   gamma=  112.85 GHz
     lambda(   19)=  0.0431   gamma=  123.82 GHz
     lambda(   20)=  0.0191   gamma=   61.61 GHz
     lambda(   21)=  0.0359   gamma=  117.41 GHz
     lambda(   22)=  0.0582   gamma=  223.78 GHz
     lambda(   23)=  0.0476   gamma=  187.45 GHz
     lambda(   24)=  0.0350   gamma=  141.41 GHz
     lambda(   25)=  0.0221   gamma=  103.71 GHz
     lambda(   26)=  0.0546   gamma=  287.81 GHz
     lambda(   27)=  0.0242   gamma=  130.25 GHz
     lambda(   28)=  0.0395   gamma=  217.82 GHz
     lambda(   29)=  0.0444   gamma=  520.47 GHz
     lambda(   30)=  0.0274   gamma=  426.38 GHz

     Gaussian Broadening:   0.040 Ry, ngauss=   0
     DOS =  1.558744 states/spin/Ry/Unit Cell at Ef= 14.385255 eV
     double delta at Ef = 41.442791
     lambda(    1)=  0.0000   gamma=    0.15 GHz
     lambda(    2)=  0.0000   gamma=    0.19 GHz
     lambda(    3)=  0.0000   gamma=    0.12 GHz
     lambda(    4)=  0.2534   gamma=   33.76 GHz
     lambda(    5)=  0.0911   gamma=   38.88 GHz
     lambda(    6)=  0.0950   gamma=   53.70 GHz
     lambda(    7)=  0.1410   gamma=  102.19 GHz
     lambda(    8)=  0.1483   gamma=  155.57 GHz
     lambda(    9)=  0.1173   gamma=  136.45 GHz
     lambda(   10)=  0.0312   gamma=   37.40 GHz
     lambda(   11)=  0.0578   gamma=  104.37 GHz
     lambda(   12)=  0.0702   gamma=  128.37 GHz
     lambda(   13)=  0.0304   gamma=   60.13 GHz
     lambda(   14)=  0.0394   gamma=   82.83 GHz
     lambda(   15)=  0.0632   gamma=  135.60 GHz
     lambda(   16)=  0.0696   gamma=  170.69 GHz
     lambda(   17)=  0.0293   gamma=   75.07 GHz
     lambda(   18)=  0.0388   gamma=  107.34 GHz
     lambda(   19)=  0.0426   gamma=  125.07 GHz
     lambda(   20)=  0.0193   gamma=   63.82 GHz
     lambda(   21)=  0.0410   gamma=  137.00 GHz
     lambda(   22)=  0.0574   gamma=  225.82 GHz
     lambda(   23)=  0.0498   gamma=  200.55 GHz
     lambda(   24)=  0.0349   gamma=  144.24 GHz
     lambda(   25)=  0.0234   gamma=  112.56 GHz
     lambda(   26)=  0.0486   gamma=  262.08 GHz
     lambda(   27)=  0.0244   gamma=  134.05 GHz
     lambda(   28)=  0.0378   gamma=  213.57 GHz
     lambda(   29)=  0.0463   gamma=  555.33 GHz
[...]

     Representation    14      1 modes -  To be done

     Representation    15      1 modes -  To be done

     Representation    16      1 modes -  To be done

     Representation    17      1 modes -  To be done

     Representation    18      1 modes -  To be done

     Representation    19      1 modes -  To be done

     Representation    20      1 modes -  To be done

     Representation    21      1 modes -  To be done

     Representation    22      1 modes -  To be done

     Representation    23      1 modes -  To be done

     Representation    24      1 modes -  To be done

     Representation    25      1 modes -  To be done

     Representation    26      1 modes -  To be done

     Representation    27      1 modes -  To be done

     Representation    28      1 modes -  To be done

     Representation    29      1 modes -  To be done

     Representation    30      1 modes -  To be done



     Alpha used in Ewald sum =   2.8000
     PHONON       :      9h37m CPU     10h23m WALL



     Representation #   1 mode #   1

     Self-consistent Calculation

      iter #   1 total cpu time : 37434.9 secs   av.it.:  12.2
      thresh= 1.000E-02 alpha_mix =  0.300 |ddv_scf|^2 =  8.290E-06

      iter #   2 total cpu time : 37479.4 secs   av.it.:  16.0
      thresh= 2.879E-04 alpha_mix =  0.300 |ddv_scf|^2 =  1.377E-06

      iter #   3 total cpu time : 37525.6 secs   av.it.:  16.7
      thresh= 1.174E-04 alpha_mix =  0.300 |ddv_scf|^2 =  2.359E-08

      iter #   4 total cpu time : 37570.6 secs   av.it.:  15.8
      thresh= 1.536E-05 alpha_mix =  0.300 |ddv_scf|^2 =  6.451E-09

      iter #   5 total cpu time : 37617.6 secs   av.it.:  17.0
      thresh= 8.032E-06 alpha_mix =  0.300 |ddv_scf|^2 =  2.983E-10

      iter #   6 total cpu time : 37665.3 secs   av.it.:  17.2
      thresh= 1.727E-06 alpha_mix =  0.300 |ddv_scf|^2 =  4.065E-11

      iter #   7 total cpu time : 37712.7 secs   av.it.:  16.8
      thresh= 6.376E-07 alpha_mix =  0.300 |ddv_scf|^2 =  7.919E-12

      iter #   8 total cpu time : 37758.5 secs   av.it.:  16.6
      thresh= 2.814E-07 alpha_mix =  0.300 |ddv_scf|^2 =  1.270E-12

      iter #   9 total cpu time : 37805.5 secs   av.it.:  17.1
      thresh= 1.127E-07 alpha_mix =  0.300 |ddv_scf|^2 =  5.599E-14

      iter #  10 total cpu time : 37851.5 secs   av.it.:  16.7
      thresh= 2.366E-08 alpha_mix =  0.300 |ddv_scf|^2 =  1.247E-14

      iter #  11 total cpu time : 37899.0 secs   av.it.:  17.0
      thresh= 1.117E-08 alpha_mix =  0.300 |ddv_scf|^2 =  2.716E-15

     End of self-consistent calculation

     Convergence has been achieved 


     Representation #   2 mode #   2

     Self-consistent Calculation

      iter #   1 total cpu time : 37941.4 secs   av.it.:  12.8
      thresh= 1.000E-02 alpha_mix =  0.300 |ddv_scf|^2 =  8.424E-05

      iter #   2 total cpu time : 37985.4 secs   av.it.:  15.8
      thresh= 9.178E-04 alpha_mix =  0.300 |ddv_scf|^2 =  1.053E-06

      iter #   3 total cpu time : 38031.1 secs   av.it.:  16.5
      thresh= 1.026E-04 alpha_mix =  0.300 |ddv_scf|^2 =  1.066E-07

      iter #   4 total cpu time : 38078.3 secs   av.it.:  16.8
      thresh= 3.266E-05 alpha_mix =  0.300 |ddv_scf|^2 =  2.022E-08

      iter #   5 total cpu time : 38124.2 secs   av.it.:  16.6
      thresh= 1.422E-05 alpha_mix =  0.300 |ddv_scf|^2 =  5.140E-09

      iter #   6 total cpu time : 38171.5 secs   av.it.:  17.2
      thresh= 7.170E-06 alpha_mix =  0.300 |ddv_scf|^2 =  3.997E-10

      iter #   7 total cpu time : 38218.6 secs   av.it.:  17.1
      thresh= 1.999E-06 alpha_mix =  0.300 |ddv_scf|^2 =  3.670E-11

      iter #   8 total cpu time : 38267.8 secs   av.it.:  17.6
      thresh= 6.058E-07 alpha_mix =  0.300 |ddv_scf|^2 =  2.611E-12

      iter #   9 total cpu time : 38316.1 secs   av.it.:  17.6
      thresh= 1.616E-07 alpha_mix =  0.300 |ddv_scf|^2 =  2.352E-13

      iter #  10 total cpu time : 38363.6 secs   av.it.:  17.3
      thresh= 4.849E-08 alpha_mix =  0.300 |ddv_scf|^2 =  4.044E-14

      iter #  11 total cpu time : 38412.7 secs   av.it.:  17.6
      thresh= 2.011E-08 alpha_mix =  0.300 |ddv_scf|^2 =  3.628E-15

     End of self-consistent calculation

     Convergence has been achieved 


     Representation #   3 mode #   3

     Self-consistent Calculation

      iter #   1 total cpu time : 38454.5 secs   av.it.:  12.6
      thresh= 1.000E-02 alpha_mix =  0.300 |ddv_scf|^2 =  3.161E-05

      iter #   2 total cpu time : 38498.5 secs   av.it.:  15.9
      thresh= 5.622E-04 alpha_mix =  0.300 |ddv_scf|^2 =  1.177E-06

      iter #   3 total cpu time : 38543.4 secs   av.it.:  16.2
      thresh= 1.085E-04 alpha_mix =  0.300 |ddv_scf|^2 =  1.652E-07

      iter #   4 total cpu time : 38590.7 secs   av.it.:  16.8
      thresh= 4.065E-05 alpha_mix =  0.300 |ddv_scf|^2 =  1.276E-08

      iter #   5 total cpu time : 38637.1 secs   av.it.:  16.8
      thresh= 1.129E-05 alpha_mix =  0.300 |ddv_scf|^2 =  1.765E-09

      iter #   6 total cpu time : 38682.7 secs   av.it.:  16.5
      thresh= 4.201E-06 alpha_mix =  0.300 |ddv_scf|^2 =  5.284E-10

      iter #   7 total cpu time : 38730.4 secs   av.it.:  17.3
      thresh= 2.299E-06 alpha_mix =  0.300 |ddv_scf|^2 =  2.133E-11

      iter #   8 total cpu time : 38778.8 secs   av.it.:  17.2
      thresh= 4.618E-07 alpha_mix =  0.300 |ddv_scf|^2 =  2.782E-12

      iter #   9 total cpu time : 38826.3 secs   av.it.:  17.2
      thresh= 1.668E-07 alpha_mix =  0.300 |ddv_scf|^2 =  3.491E-13

      iter #  10 total cpu time : 38873.9 secs   av.it.:  17.1
      thresh= 5.908E-08 alpha_mix =  0.300 |ddv_scf|^2 =  6.118E-14

      iter #  11 total cpu time : 38922.1 secs   av.it.:  17.2
      thresh= 2.473E-08 alpha_mix =  0.300 |ddv_scf|^2 =  9.462E-15

     End of self-consistent calculation

     Convergence has been achieved 


     Representation #   4 mode #   4

     Self-consistent Calculation

      iter #   1 total cpu time : 38951.3 secs   av.it.:   7.3
      thresh= 1.000E-02 alpha_mix =  0.300 |ddv_scf|^2 =  4.062E-08

      iter #   2 total cpu time : 38996.0 secs   av.it.:  16.0
      thresh= 2.015E-05 alpha_mix =  0.300 |ddv_scf|^2 =  9.952E-09

      iter #   3 total cpu time : 39042.7 secs   av.it.:  16.9
      thresh= 9.976E-06 alpha_mix =  0.300 |ddv_scf|^2 =  6.728E-10

      iter #   4 total cpu time : 39089.3 secs   av.it.:  16.8
      thresh= 2.594E-06 alpha_mix =  0.300 |ddv_scf|^2 =  1.383E-10

      iter #   5 total cpu time : 39136.7 secs   av.it.:  16.8
      thresh= 1.176E-06 alpha_mix =  0.300 |ddv_scf|^2 =  2.143E-11

      iter #   6 total cpu time : 39183.5 secs   av.it.:  16.9
      thresh= 4.629E-07 alpha_mix =  0.300 |ddv_scf|^2 =  2.391E-12

      iter #   7 total cpu time : 39230.0 secs   av.it.:  16.9
      thresh= 1.546E-07 alpha_mix =  0.300 |ddv_scf|^2 =  2.062E-13

      iter #   8 total cpu time : 39277.7 secs   av.it.:  17.0
      thresh= 4.541E-08 alpha_mix =  0.300 |ddv_scf|^2 =  2.285E-14

      iter #   9 total cpu time : 39323.9 secs   av.it.:  16.6
      thresh= 1.512E-08 alpha_mix =  0.300 |ddv_scf|^2 =  3.768E-15

     End of self-consistent calculation

     Convergence has been achieved 


     Representation #   5 mode #   5

     Self-consistent Calculation

      iter #   1 total cpu time : 39355.6 secs   av.it.:   8.3
      thresh= 1.000E-02 alpha_mix =  0.300 |ddv_scf|^2 =  7.866E-07

      iter #   2 total cpu time : 39401.2 secs   av.it.:  16.4
      thresh= 8.869E-05 alpha_mix =  0.300 |ddv_scf|^2 =  4.444E-08

      iter #   3 total cpu time : 39448.6 secs   av.it.:  16.7
      thresh= 2.108E-05 alpha_mix =  0.300 |ddv_scf|^2 =  4.684E-09

      iter #   4 total cpu time : 39493.7 secs   av.it.:  16.1
      thresh= 6.844E-06 alpha_mix =  0.300 |ddv_scf|^2 =  7.452E-10

      iter #   5 total cpu time : 39541.1 secs   av.it.:  17.1
      thresh= 2.730E-06 alpha_mix =  0.300 |ddv_scf|^2 =  7.066E-11

      iter #   6 total cpu time : 39588.9 secs   av.it.:  17.4
      thresh= 8.406E-07 alpha_mix =  0.300 |ddv_scf|^2 =  6.935E-12

      iter #   7 total cpu time : 39637.2 secs   av.it.:  17.1
      thresh= 2.633E-07 alpha_mix =  0.300 |ddv_scf|^2 =  4.493E-13

      iter #   8 total cpu time : 39682.5 secs   av.it.:  16.3
      thresh= 6.703E-08 alpha_mix =  0.300 |ddv_scf|^2 =  1.268E-13

      iter #   9 total cpu time : 39731.2 secs   av.it.:  17.6
      thresh= 3.561E-08 alpha_mix =  0.300 |ddv_scf|^2 =  3.907E-15

     End of self-consistent calculation

     Convergence has been achieved 


     Representation #   6 mode #   6

     Self-consistent Calculation

      iter #   1 total cpu time : 39761.3 secs   av.it.:   7.6
      thresh= 1.000E-02 alpha_mix =  0.300 |ddv_scf|^2 =  2.070E-07

      iter #   2 total cpu time : 39807.3 secs   av.it.:  16.1
      thresh= 4.550E-05 alpha_mix =  0.300 |ddv_scf|^2 =  1.252E-08

      iter #   3 total cpu time : 39853.7 secs   av.it.:  16.7
      thresh= 1.119E-05 alpha_mix =  0.300 |ddv_scf|^2 =  2.595E-09

      iter #   4 total cpu time : 39900.1 secs   av.it.:  16.6
      thresh= 5.094E-06 alpha_mix =  0.300 |ddv_scf|^2 =  5.391E-10

      iter #   5 total cpu time : 39947.2 secs   av.it.:  17.0
      thresh= 2.322E-06 alpha_mix =  0.300 |ddv_scf|^2 =  5.976E-11

      iter #   6 total cpu time : 39996.0 secs   av.it.:  17.3
      thresh= 7.731E-07 alpha_mix =  0.300 |ddv_scf|^2 =  6.046E-12

      iter #   7 total cpu time : 40042.9 secs   av.it.:  16.8
      thresh= 2.459E-07 alpha_mix =  0.300 |ddv_scf|^2 =  5.463E-13

      iter #   8 total cpu time : 40089.5 secs   av.it.:  16.7
      thresh= 7.391E-08 alpha_mix =  0.300 |ddv_scf|^2 =  7.149E-14

      iter #   9 total cpu time : 40136.9 secs   av.it.:  16.8
      thresh= 2.674E-08 alpha_mix =  0.300 |ddv_scf|^2 =  8.481E-15

     End of self-consistent calculation

     Convergence has been achieved 


     Representation #   7 mode #   7

     Self-consistent Calculation

      iter #   1 total cpu time : 40164.1 secs   av.it.:   6.5
      thresh= 1.000E-02 alpha_mix =  0.300 |ddv_scf|^2 =  3.891E-08

      iter #   2 total cpu time : 40208.3 secs   av.it.:  15.7
      thresh= 1.973E-05 alpha_mix =  0.300 |ddv_scf|^2 =  1.013E-08

      iter #   3 total cpu time : 40253.9 secs   av.it.:  16.4
      thresh= 1.006E-05 alpha_mix =  0.300 |ddv_scf|^2 =  1.412E-09

      iter #   4 total cpu time : 40300.0 secs   av.it.:  16.6
      thresh= 3.758E-06 alpha_mix =  0.300 |ddv_scf|^2 =  1.336E-10

      iter #   5 total cpu time : 40346.5 secs   av.it.:  16.4
      thresh= 1.156E-06 alpha_mix =  0.300 |ddv_scf|^2 =  2.311E-11

      iter #   6 total cpu time : 40392.8 secs   av.it.:  16.7
      thresh= 4.807E-07 alpha_mix =  0.300 |ddv_scf|^2 =  2.395E-12

      iter #   7 total cpu time : 40438.8 secs   av.it.:  16.6
      thresh= 1.548E-07 alpha_mix =  0.300 |ddv_scf|^2 =  1.873E-13

      iter #   8 total cpu time : 40485.3 secs   av.it.:  16.4
      thresh= 4.327E-08 alpha_mix =  0.300 |ddv_scf|^2 =  2.131E-14

      iter #   9 total cpu time : 40531.2 secs   av.it.:  16.5
      thresh= 1.460E-08 alpha_mix =  0.300 |ddv_scf|^2 =  3.694E-15

     End of self-consistent calculation

     Convergence has been achieved 


     Representation #   8 mode #   8

     Self-consistent Calculation

      iter #   1 total cpu time : 40561.7 secs   av.it.:   7.9
      thresh= 1.000E-02 alpha_mix =  0.300 |ddv_scf|^2 =  6.750E-07

      iter #   2 total cpu time : 40605.9 secs   av.it.:  15.8
      thresh= 8.216E-05 alpha_mix =  0.300 |ddv_scf|^2 =  1.836E-08

      iter #   3 total cpu time : 40652.7 secs   av.it.:  16.8
      thresh= 1.355E-05 alpha_mix =  0.300 |ddv_scf|^2 =  3.333E-09

      iter #   4 total cpu time : 40698.7 secs   av.it.:  16.2
      thresh= 5.773E-06 alpha_mix =  0.300 |ddv_scf|^2 =  6.269E-10

      iter #   5 total cpu time : 40745.2 secs   av.it.:  16.7
      thresh= 2.504E-06 alpha_mix =  0.300 |ddv_scf|^2 =  1.095E-10

      iter #   6 total cpu time : 40793.0 secs   av.it.:  17.4
      thresh= 1.047E-06 alpha_mix =  0.300 |ddv_scf|^2 =  7.423E-12

      iter #   7 total cpu time : 40840.3 secs   av.it.:  16.8
      thresh= 2.724E-07 alpha_mix =  0.300 |ddv_scf|^2 =  6.618E-13

      iter #   8 total cpu time : 40886.4 secs   av.it.:  16.6
      thresh= 8.135E-08 alpha_mix =  0.300 |ddv_scf|^2 =  1.167E-13

      iter #   9 total cpu time : 40933.4 secs   av.it.:  17.0
      thresh= 3.416E-08 alpha_mix =  0.300 |ddv_scf|^2 =  1.088E-14

      iter #  10 total cpu time : 40981.1 secs   av.it.:  17.3
      thresh= 1.043E-08 alpha_mix =  0.300 |ddv_scf|^2 =  1.143E-15

     End of self-consistent calculation

     Convergence has been achieved 


     Representation #   9 mode #   9

     Self-consistent Calculation

      iter #   1 total cpu time : 41012.4 secs   av.it.:   7.8
      thresh= 1.000E-02 alpha_mix =  0.300 |ddv_scf|^2 =  3.023E-07

      iter #   2 total cpu time : 41058.3 secs   av.it.:  16.4
      thresh= 5.498E-05 alpha_mix =  0.300 |ddv_scf|^2 =  2.561E-08

      iter #   3 total cpu time : 41104.7 secs   av.it.:  16.7
      thresh= 1.600E-05 alpha_mix =  0.300 |ddv_scf|^2 =  3.882E-09

      iter #   4 total cpu time : 41151.0 secs   av.it.:  16.6
      thresh= 6.231E-06 alpha_mix =  0.300 |ddv_scf|^2 =  6.563E-10

      iter #   5 total cpu time : 41200.1 secs   av.it.:  17.4
      thresh= 2.562E-06 alpha_mix =  0.300 |ddv_scf|^2 =  4.960E-11

      iter #   6 total cpu time : 41248.2 secs   av.it.:  17.4
      thresh= 7.043E-07 alpha_mix =  0.300 |ddv_scf|^2 =  6.044E-12

      iter #   7 total cpu time : 41296.7 secs   av.it.:  17.5
      thresh= 2.459E-07 alpha_mix =  0.300 |ddv_scf|^2 =  4.036E-13

      iter #   8 total cpu time : 41341.9 secs   av.it.:  16.2
      thresh= 6.353E-08 alpha_mix =  0.300 |ddv_scf|^2 =  1.216E-13

      iter #   9 total cpu time : 41391.0 secs   av.it.:  17.5
      thresh= 3.488E-08 alpha_mix =  0.300 |ddv_scf|^2 =  2.578E-15

     End of self-consistent calculation

     Convergence has been achieved 


     Representation #  10 mode #  10

     Self-consistent Calculation

      iter #   1 total cpu time : 41421.0 secs   av.it.:   7.7
      thresh= 1.000E-02 alpha_mix =  0.300 |ddv_scf|^2 =  5.625E-08

      iter #   2 total cpu time : 41466.3 secs   av.it.:  16.3
      thresh= 2.372E-05 alpha_mix =  0.300 |ddv_scf|^2 =  1.274E-08

      iter #   3 total cpu time : 41513.1 secs   av.it.:  17.0
      thresh= 1.129E-05 alpha_mix =  0.300 |ddv_scf|^2 =  1.647E-09

      iter #   4 total cpu time : 41561.2 secs   av.it.:  17.0
      thresh= 4.058E-06 alpha_mix =  0.300 |ddv_scf|^2 =  1.794E-10

      iter #   5 total cpu time : 41609.9 secs   av.it.:  17.6
      thresh= 1.339E-06 alpha_mix =  0.300 |ddv_scf|^2 =  1.115E-11

      iter #   6 total cpu time : 41657.0 secs   av.it.:  17.0
      thresh= 3.339E-07 alpha_mix =  0.300 |ddv_scf|^2 =  1.826E-12

      iter #   7 total cpu time : 41704.7 secs   av.it.:  16.8
      thresh= 1.351E-07 alpha_mix =  0.300 |ddv_scf|^2 =  2.270E-13

      iter #   8 total cpu time : 41752.8 secs   av.it.:  17.4
      thresh= 4.764E-08 alpha_mix =  0.300 |ddv_scf|^2 =  1.642E-14

      iter #   9 total cpu time : 41797.9 secs   av.it.:  16.1
      thresh= 1.281E-08 alpha_mix =  0.300 |ddv_scf|^2 =  4.134E-15

     End of self-consistent calculation

     Convergence has been achieved 


     Representation #  11 mode #  11

     Self-consistent Calculation

      iter #   1 total cpu time : 41829.7 secs   av.it.:   8.3
      thresh= 1.000E-02 alpha_mix =  0.300 |ddv_scf|^2 =  1.209E-06

      iter #   2 total cpu time : 41876.7 secs   av.it.:  16.4
      thresh= 1.100E-04 alpha_mix =  0.300 |ddv_scf|^2 =  1.178E-07

      iter #   3 total cpu time : 41922.1 secs   av.it.:  16.4
      thresh= 3.432E-05 alpha_mix =  0.300 |ddv_scf|^2 =  3.997E-09

      iter #   4 total cpu time : 41967.9 secs   av.it.:  16.6
      thresh= 6.322E-06 alpha_mix =  0.300 |ddv_scf|^2 =  4.930E-10

      iter #   5 total cpu time : 42015.6 secs   av.it.:  17.4
      thresh= 2.220E-06 alpha_mix =  0.300 |ddv_scf|^2 =  6.494E-11

      iter #   6 total cpu time : 42065.7 secs   av.it.:  17.9
      thresh= 8.059E-07 alpha_mix =  0.300 |ddv_scf|^2 =  4.784E-12

      iter #   7 total cpu time : 42113.0 secs   av.it.:  17.2
      thresh= 2.187E-07 alpha_mix =  0.300 |ddv_scf|^2 =  4.961E-13

      iter #   8 total cpu time : 42159.1 secs   av.it.:  16.6
      thresh= 7.043E-08 alpha_mix =  0.300 |ddv_scf|^2 =  1.164E-13

      iter #   9 total cpu time : 42207.0 secs   av.it.:  17.4
      thresh= 3.412E-08 alpha_mix =  0.300 |ddv_scf|^2 =  1.337E-14

      iter #  10 total cpu time : 42254.6 secs   av.it.:  16.9
      thresh= 1.156E-08 alpha_mix =  0.300 |ddv_scf|^2 =  2.021E-15

     End of self-consistent calculation

     Convergence has been achieved 


     Representation #  12 mode #  12

     Self-consistent Calculation

      iter #   1 total cpu time : 42284.5 secs   av.it.:   7.6
      thresh= 1.000E-02 alpha_mix =  0.300 |ddv_scf|^2 =  3.257E-07

      iter #   2 total cpu time : 42329.9 secs   av.it.:  16.3
      thresh= 5.707E-05 alpha_mix =  0.300 |ddv_scf|^2 =  2.932E-08

      iter #   3 total cpu time : 42376.1 secs   av.it.:  16.6
      thresh= 1.712E-05 alpha_mix =  0.300 |ddv_scf|^2 =  4.198E-09

      iter #   4 total cpu time : 42422.9 secs   av.it.:  16.5
      thresh= 6.480E-06 alpha_mix =  0.300 |ddv_scf|^2 =  5.802E-10

      iter #   5 total cpu time : 42471.4 secs   av.it.:  17.5
      thresh= 2.409E-06 alpha_mix =  0.300 |ddv_scf|^2 =  2.488E-11

      iter #   6 total cpu time : 42517.9 secs   av.it.:  16.7
      thresh= 4.988E-07 alpha_mix =  0.300 |ddv_scf|^2 =  5.740E-12

      iter #   7 total cpu time : 42567.0 secs   av.it.:  17.5
      thresh= 2.396E-07 alpha_mix =  0.300 |ddv_scf|^2 =  2.700E-13

      iter #   8 total cpu time : 42612.8 secs   av.it.:  16.5
      thresh= 5.196E-08 alpha_mix =  0.300 |ddv_scf|^2 =  6.671E-14

      iter #   9 total cpu time : 42660.5 secs   av.it.:  17.3
      thresh= 2.583E-08 alpha_mix =  0.300 |ddv_scf|^2 =  6.243E-15

     End of self-consistent calculation

     Convergence has been achieved 


     Representation #  13 mode #  13

     Self-consistent Calculation

      iter #   1 total cpu time : 42687.1 secs   av.it.:   6.2
      thresh= 1.000E-02 alpha_mix =  0.300 |ddv_scf|^2 =  3.670E-08

      iter #   2 total cpu time : 42731.1 secs   av.it.:  15.7
      thresh= 1.916E-05 alpha_mix =  0.300 |ddv_scf|^2 =  9.601E-09

      iter #   3 total cpu time : 42777.7 secs   av.it.:  16.4
      thresh= 9.798E-06 alpha_mix =  0.300 |ddv_scf|^2 =  1.387E-09

      iter #   4 total cpu time : 42823.3 secs   av.it.:  16.4
      thresh= 3.725E-06 alpha_mix =  0.300 |ddv_scf|^2 =  1.213E-10

      iter #   5 total cpu time : 42869.6 secs   av.it.:  16.7
      thresh= 1.101E-06 alpha_mix =  0.300 |ddv_scf|^2 =  1.084E-11

      iter #   6 total cpu time : 42915.9 secs   av.it.:  16.3
      thresh= 3.293E-07 alpha_mix =  0.300 |ddv_scf|^2 =  2.059E-12

      iter #   7 total cpu time : 42962.8 secs   av.it.:  17.0
      thresh= 1.435E-07 alpha_mix =  0.300 |ddv_scf|^2 =  5.695E-14

      iter #   8 total cpu time : 43007.8 secs   av.it.:  16.2
      thresh= 2.387E-08 alpha_mix =  0.300 |ddv_scf|^2 =  1.433E-14

      iter #   9 total cpu time : 43055.0 secs   av.it.:  17.0
      thresh= 1.197E-08 alpha_mix =  0.300 |ddv_scf|^2 =  1.694E-15

     End of self-consistent calculation

     Convergence has been achieved 


     Representation #  14 mode #  14

     Self-consistent Calculation

      iter #   1 total cpu time : 43086.2 secs   av.it.:   7.7
      thresh= 1.000E-02 alpha_mix =  0.300 |ddv_scf|^2 =  7.812E-07

      iter #   2 total cpu time : 43131.0 secs   av.it.:  15.9
      thresh= 8.838E-05 alpha_mix =  0.300 |ddv_scf|^2 =  5.568E-08

      iter #   3 total cpu time : 43177.1 secs   av.it.:  16.5
      thresh= 2.360E-05 alpha_mix =  0.300 |ddv_scf|^2 =  5.952E-09
mpirun: Forwarding signal 18 to job
