
     Program PWSCF v.6.7MaX starts on 31May2026 at 18:35:38 

     This program is part of the open-source Quantum ESPRESSO suite
     for quantum simulation of materials; please cite
         "P. Giannozzi et al., J. Phys.:Condens. Matter 21 395502 (2009);
         "P. Giannozzi et al., J. Phys.:Condens. Matter 29 465901 (2017);
          URL http://www.quantum-espresso.org", 
     in publications or presentations arising from this work. More details at
     http://www.quantum-espresso.org/quote

     Parallel version (MPI), running on     9 processors

     MPI processes distributed on     1 nodes
     R & G space division:  proc/nbgrp/npool/nimage =       9
     Reading input from vc-relax.in

     Current dimensions of program PWSCF are:
     Max number of different atomic species (ntypx) = 10
     Max number of k-points (npk) =  40000
     Max angular momentum in pseudopotentials (lmaxx) =  3
     file Lu.pbe-spdn-rrkjus_psl.1.0.0.UPF: wavefunction(s)  5P renormalized

     Subspace diagonalization in iterative solution of the eigenvalue problem:
     a serial algorithm will be used


     Parallelization info
     --------------------
     sticks:   dense  smooth     PW     G-vecs:    dense   smooth      PW
     Min         265     106     33                 8538     2174     375
     Max         267     107     35                 8539     2178     376
     Sum        2395     955    301                76849    19579    3383



     bravais-lattice index     =            2
     lattice parameter (alat)  =       9.3000  a.u.
     unit-cell volume          =     201.0893 (a.u.)^3
     number of atoms/cell      =           11
     number of atomic types    =            2
     number of electrons       =        21.00
     number of Kohn-Sham states=           15
     kinetic-energy cutoff     =      80.0000  Ry
     charge density cutoff     =     800.0000  Ry
     scf convergence threshold =      1.0E-10
     mixing beta               =       0.3000
     number of iterations used =            8  plain     mixing
     energy convergence thresh.=      1.0E-06
     force convergence thresh. =      1.0E-04
     press convergence thresh. =      5.0E-01
     Exchange-correlation= PBE
                           (   1   4   3   4   0   0   0)
     nstep                     =          200


     celldm(1)=   9.300000  celldm(2)=   0.000000  celldm(3)=   0.000000
     celldm(4)=   0.000000  celldm(5)=   0.000000  celldm(6)=   0.000000

     crystal axes: (cart. coord. in units of alat)
               a(1) = (  -0.500000   0.000000   0.500000 )  
               a(2) = (   0.000000   0.500000   0.500000 )  
               a(3) = (  -0.500000   0.500000   0.000000 )  

     reciprocal axes: (cart. coord. in units 2 pi/alat)
               b(1) = ( -1.000000 -1.000000  1.000000 )  
               b(2) = (  1.000000  1.000000  1.000000 )  
               b(3) = ( -1.000000  1.000000 -1.000000 )  


     PseudoPot. # 1 for Lu read from file:
     ./pseudo/Lu.pbe-spdn-rrkjus_psl.1.0.0.UPF
     MD5 check sum: 7c2084fd7f01b7affd2672fab5b9f6d8
     Pseudo is Ultrasoft + core correction, Zval = 11.0
     Generated using &quot;atomic&quot; code by A. Dal Corso  v.6.2.2
     Using radial grid of 1271 points,  6 beta functions with: 
                l(1) =   0
                l(2) =   0
                l(3) =   1
                l(4) =   1
                l(5) =   2
                l(6) =   2
     Q(r) pseudized with 0 coefficients 


     PseudoPot. # 2 for H  read from file:
     ./pseudo/H.pbe-rrkjus_psl.1.0.0.UPF
     MD5 check sum: 9e615844a0e642e0aee8526d0d0f65f7
     Pseudo is Ultrasoft, Zval =  1.0
     Generated using &quot;atomic&quot; code by A. Dal Corso  v.6.3MaX
     Using radial grid of  929 points,  2 beta functions with: 
                l(1) =   0
                l(2) =   0
     Q(r) pseudized with 0 coefficients 


     atomic species   valence    mass     pseudopotential
        Lu            11.00   174.96700     Lu( 1.00)
        H              1.00     1.00800     H ( 1.00)

     No symmetry found



   Cartesian axes

     site n.     atom                  positions (alat units)
         1           Lu  tau(   1) = (   0.0000000   0.0000000   0.0000000  )
         2           H   tau(   2) = (  -0.2500000   0.2500000   0.2500000  )
         3           H   tau(   3) = (  -0.7500000   0.7500000   0.7500000  )
         4           H   tau(   4) = (  -0.3750000   0.3750000   0.3750000  )
         5           H   tau(   5) = (   0.3750000  -0.3750000  -0.3750000  )
         6           H   tau(   6) = (   0.0000000   0.0000000   0.3750000  )
         7           H   tau(   7) = (   0.0000000   0.0000000  -0.3750000  )
         8           H   tau(   8) = (  -0.3750000   0.0000000   0.0000000  )
         9           H   tau(   9) = (   0.3750000   0.0000000   0.0000000  )
        10           H   tau(  10) = (   0.0000000   0.3750000   0.0000000  )
        11           H   tau(  11) = (   0.0000000  -0.3750000   0.0000000  )

     number of k points=   868  Methfessel-Paxton smearing, width (Ry)=  0.0200

     Number of k-points >= 100: set verbosity='high' to print them.

     Dense  grid:    76849 G-vectors     FFT dimensions: (  60,  60,  60)

     Smooth grid:    19579 G-vectors     FFT dimensions: (  40,  40,  40)

     Estimated max dynamical RAM per process >      96.41 MB

     Estimated total dynamical RAM >     867.73 MB

     Initial potential from superposition of free atoms

     starting charge   20.98360, renormalised to   21.00000
     Starting wfcs are   23 randomized atomic wfcs

     total cpu time spent up to now is        3.4 secs

     Self-consistent Calculation

     iteration #  1     ecut=    80.00 Ry     beta= 0.30
     Davidson diagonalization with overlap
     ethr =  1.00E-02,  avg # of iterations =  3.2

     total cpu time spent up to now is       10.1 secs

     total energy              =    -134.87387553 Ry
     estimated scf accuracy    <       0.81747610 Ry

     iteration #  2     ecut=    80.00 Ry     beta= 0.30
     Davidson diagonalization with overlap
     ethr =  3.89E-03,  avg # of iterations =  1.3

     total cpu time spent up to now is       14.6 secs

     total energy              =    -134.83109833 Ry
     estimated scf accuracy    <       0.16664917 Ry

     iteration #  3     ecut=    80.00 Ry     beta= 0.30
     Davidson diagonalization with overlap
     ethr =  7.94E-04,  avg # of iterations =  2.2

     total cpu time spent up to now is       20.5 secs

     total energy              =    -134.86927940 Ry
     estimated scf accuracy    <       0.00794247 Ry

     iteration #  4     ecut=    80.00 Ry     beta= 0.30
     Davidson diagonalization with overlap
     ethr =  3.78E-05,  avg # of iterations =  3.4

     total cpu time spent up to now is       26.5 secs

     total energy              =    -134.87002715 Ry
     estimated scf accuracy    <       0.00214774 Ry

     iteration #  5     ecut=    80.00 Ry     beta= 0.30
     Davidson diagonalization with overlap
     ethr =  1.02E-05,  avg # of iterations =  2.4

     total cpu time spent up to now is       31.6 secs

     total energy              =    -134.87020044 Ry
     estimated scf accuracy    <       0.00003679 Ry

     iteration #  6     ecut=    80.00 Ry     beta= 0.30
     Davidson diagonalization with overlap
     ethr =  1.75E-07,  avg # of iterations =  3.3

     total cpu time spent up to now is       37.7 secs

     total energy              =    -134.87020478 Ry
     estimated scf accuracy    <       0.00001136 Ry

     iteration #  7     ecut=    80.00 Ry     beta= 0.30
     Davidson diagonalization with overlap
     ethr =  5.41E-08,  avg # of iterations =  2.0

     total cpu time spent up to now is       43.1 secs

     total energy              =    -134.87020675 Ry
     estimated scf accuracy    <       0.00000037 Ry

     iteration #  8     ecut=    80.00 Ry     beta= 0.30
     Davidson diagonalization with overlap
     ethr =  1.76E-09,  avg # of iterations =  2.0

     total cpu time spent up to now is       48.2 secs

     total energy              =    -134.87020678 Ry
     estimated scf accuracy    <       0.00000006 Ry

     iteration #  9     ecut=    80.00 Ry     beta= 0.30
     Davidson diagonalization with overlap
     ethr =  2.79E-10,  avg # of iterations =  2.0

     total cpu time spent up to now is       53.7 secs

     total energy              =    -134.87020679 Ry
     estimated scf accuracy    <          3.0E-09 Ry

     iteration # 10     ecut=    80.00 Ry     beta= 0.30
     Davidson diagonalization with overlap
     ethr =  1.44E-11,  avg # of iterations =  3.0

     total cpu time spent up to now is       60.0 secs

     total energy              =    -134.87020680 Ry
     estimated scf accuracy    <          4.4E-09 Ry

     iteration # 11     ecut=    80.00 Ry     beta= 0.30
     Davidson diagonalization with overlap
     ethr =  1.44E-11,  avg # of iterations =  2.0

     total cpu time spent up to now is       65.5 secs

     total energy              =    -134.87020680 Ry
     estimated scf accuracy    <          1.7E-10 Ry

     iteration # 12     ecut=    80.00 Ry     beta= 0.30
     Davidson diagonalization with overlap
     ethr =  8.23E-13,  avg # of iterations =  2.8

     total cpu time spent up to now is       71.6 secs

     End of self-consistent calculation

     Number of k-points >= 100: set verbosity='high' to print the bands.

     the Fermi energy is    17.2136 ev

!    total energy              =    -134.87020680 Ry
     estimated scf accuracy    <          1.9E-11 Ry
     smearing contrib. (-TS)   =       0.00015722 Ry
     internal energy E=F+TS    =    -134.87036402 Ry

     The total energy is F=E-TS. E is the sum of the following terms:
     one-electron contribution =       3.21118583 Ry
     hartree contribution      =      10.67611984 Ry
     xc contribution           =     -65.26259880 Ry
     ewald contribution        =     -83.49507089 Ry

     convergence has been achieved in  12 iterations

     Forces acting on atoms (cartesian axes, Ry/au):

     atom    1 type  1   force =    -0.00000000    0.00000000    0.00000000
     atom    2 type  2   force =     0.01090043   -0.01090043   -0.01090043
     atom    3 type  2   force =    -0.01090042    0.01090043    0.01090043
     atom    4 type  2   force =     0.17690827   -0.17690827   -0.17690827
     atom    5 type  2   force =    -0.17690827    0.17690827    0.17690827
     atom    6 type  2   force =    -0.13229779    0.13229779   -0.37208126
     atom    7 type  2   force =     0.13229779   -0.13229779    0.37208125
     atom    8 type  2   force =     0.37208126    0.13229779    0.13229779
     atom    9 type  2   force =    -0.37208125   -0.13229779   -0.13229779
     atom   10 type  2   force =    -0.13229779   -0.37208126    0.13229779
     atom   11 type  2   force =     0.13229779    0.37208125   -0.13229779

     Total force =     1.108689     Total SCF correction =     0.000002


     Computing stress (Cartesian axis) and pressure

          total   stress  (Ry/bohr**3)                   (kbar)     P=     2099.28
   0.01427065  -0.00051954  -0.00051954         2099.28      -76.43      -76.43
  -0.00051954   0.01427065   0.00051954          -76.43     2099.28       76.43
  -0.00051954   0.00051954   0.01427065          -76.43       76.43     2099.28


     BFGS Geometry Optimization
     Energy error            =      0.0E+00
     Gradient error          =      3.7E-01
     Cell gradient error     =      2.4E-03


     number of scf cycles    =   1
     number of bfgs steps    =   0

     enthalpy new            =    -132.4779971568 Ry

     new trust radius        =       0.4164731327 bohr
     new conv_thr            =            1.0E-10 Ry

     new unit-cell volume =    238.95982 a.u.^3 (    35.41019 Ang^3 )
     density =      8.67766 g/cm^3

CELL_PARAMETERS (alat=  9.30000000)
  -0.536174109   0.012988529   0.536174110
  -0.012988529   0.536174110   0.536174110
  -0.536174109   0.536174110   0.012988529

ATOMIC_POSITIONS (crystal)
Lu            0.0000000009        0.0000000001       -0.0000000000
H             0.2488279112        0.2488279112        0.2488279113
H             0.7511720887        0.7511720888        0.7511720887
H             0.3559776051        0.3559776052        0.3559776052
H            -0.3559776052       -0.3559776052       -0.3559776052
H             0.3349912628        0.3349912629       -0.3065401257
H            -0.3349912630       -0.3349912629        0.3065401257
H             0.3349912628       -0.3065401257        0.3349912629
H            -0.3349912630        0.3065401257       -0.3349912629
H            -0.3065401257        0.3349912628        0.3349912629
H             0.3065401255       -0.3349912629       -0.3349912629



     Writing output data file ./out/luh10.save/
     NEW-OLD atomic charge density approx. for the potential
     extrapolated charge   24.32550, renormalised to   21.00000

     total cpu time spent up to now is       74.6 secs

     Self-consistent Calculation

     iteration #  1     ecut=    80.00 Ry     beta= 0.30
     Davidson diagonalization with overlap
     c_bands:  1 eigenvalues not converged
     c_bands:  1 eigenvalues not converged
     c_bands:  1 eigenvalues not converged
     c_bands:  1 eigenvalues not converged
     c_bands:  1 eigenvalues not converged
     c_bands:  1 eigenvalues not converged
     ethr =  1.00E-06,  avg # of iterations = 11.6

     total cpu time spent up to now is       92.1 secs

     total energy              =    -135.50909599 Ry
     estimated scf accuracy    <       0.29800438 Ry

     iteration #  2     ecut=    80.00 Ry     beta= 0.30
     Davidson diagonalization with overlap
     ethr =  1.42E-03,  avg # of iterations =  3.1

     total cpu time spent up to now is       99.4 secs

     total energy              =    -135.73627540 Ry
     estimated scf accuracy    <       0.18013603 Ry

     iteration #  3     ecut=    80.00 Ry     beta= 0.30
     Davidson diagonalization with overlap
     ethr =  8.58E-04,  avg # of iterations =  1.0

     total cpu time spent up to now is      103.9 secs

     total energy              =    -135.69835987 Ry
     estimated scf accuracy    <       0.07838836 Ry

     iteration #  4     ecut=    80.00 Ry     beta= 0.30
     Davidson diagonalization with overlap
     ethr =  3.73E-04,  avg # of iterations =  2.0

     total cpu time spent up to now is      109.6 secs

     total energy              =    -135.71493235 Ry
     estimated scf accuracy    <       0.00528604 Ry

     iteration #  5     ecut=    80.00 Ry     beta= 0.30
     Davidson diagonalization with overlap
     ethr =  2.52E-05,  avg # of iterations =  2.8

     total cpu time spent up to now is      115.3 secs

     total energy              =    -135.71556050 Ry
     estimated scf accuracy    <       0.00032775 Ry

     iteration #  6     ecut=    80.00 Ry     beta= 0.30
     Davidson diagonalization with overlap
     ethr =  1.56E-06,  avg # of iterations =  3.7

     total cpu time spent up to now is      121.2 secs

     total energy              =    -135.71560175 Ry
     estimated scf accuracy    <       0.00001493 Ry

     iteration #  7     ecut=    80.00 Ry     beta= 0.30
     Davidson diagonalization with overlap
     ethr =  7.11E-08,  avg # of iterations =  2.8

     total cpu time spent up to now is      127.4 secs

     total energy              =    -135.71560447 Ry
     estimated scf accuracy    <       0.00000757 Ry

     iteration #  8     ecut=    80.00 Ry     beta= 0.30
     Davidson diagonalization with overlap
     ethr =  3.60E-08,  avg # of iterations =  2.2

     total cpu time spent up to now is      133.6 secs

     total energy              =    -135.71560640 Ry
     estimated scf accuracy    <       0.00000348 Ry

     iteration #  9     ecut=    80.00 Ry     beta= 0.30
     Davidson diagonalization with overlap
     ethr =  1.66E-08,  avg # of iterations =  2.0

     total cpu time spent up to now is      139.3 secs

     total energy              =    -135.71560723 Ry
     estimated scf accuracy    <       0.00000002 Ry

     iteration # 10     ecut=    80.00 Ry     beta= 0.30
     Davidson diagonalization with overlap
     ethr =  8.92E-11,  avg # of iterations =  3.7

     total cpu time spent up to now is      145.6 secs

     total energy              =    -135.71560722 Ry
     estimated scf accuracy    <       0.00000003 Ry

     iteration # 11     ecut=    80.00 Ry     beta= 0.30
     Davidson diagonalization with overlap
     ethr =  8.92E-11,  avg # of iterations =  2.0

     total cpu time spent up to now is      151.5 secs

     total energy              =    -135.71560723 Ry
     estimated scf accuracy    <          4.1E-10 Ry

     iteration # 12     ecut=    80.00 Ry     beta= 0.30
     Davidson diagonalization with overlap
     ethr =  1.95E-12,  avg # of iterations =  2.2

     total cpu time spent up to now is      157.0 secs

     total energy              =    -135.71560723 Ry
     estimated scf accuracy    <          1.1E-10 Ry

     iteration # 13     ecut=    80.00 Ry     beta= 0.30
     Davidson diagonalization with overlap
     ethr =  5.24E-13,  avg # of iterations =  2.0

     total cpu time spent up to now is      162.7 secs

     End of self-consistent calculation

     Number of k-points >= 100: set verbosity='high' to print the bands.

     the Fermi energy is    13.3901 ev

!    total energy              =    -135.71560723 Ry
     estimated scf accuracy    <          1.6E-12 Ry
     smearing contrib. (-TS)   =      -0.00026919 Ry
     internal energy E=F+TS    =    -135.71533804 Ry

     The total energy is F=E-TS. E is the sum of the following terms:
     one-electron contribution =      -1.90219579 Ry
     hartree contribution      =      11.51951172 Ry
     xc contribution           =     -64.38957547 Ry
     ewald contribution        =     -80.94307850 Ry

     convergence has been achieved in  13 iterations

     Forces acting on atoms (cartesian axes, Ry/au):

     atom    1 type  1   force =     0.00000000   -0.00000000   -0.00000000
     atom    2 type  2   force =    -0.00222662    0.00222661    0.00222661
     atom    3 type  2   force =     0.00222662   -0.00222661   -0.00222661
     atom    4 type  2   force =     0.03586205   -0.03586205   -0.03586205
     atom    5 type  2   force =    -0.03586205    0.03586205    0.03586205
     atom    6 type  2   force =    -0.03669487    0.03669487    0.02979643
     atom    7 type  2   force =     0.03669487   -0.03669487   -0.02979642
     atom    8 type  2   force =    -0.02979643    0.03669487    0.03669487
     atom    9 type  2   force =     0.02979643   -0.03669487   -0.03669487
     atom   10 type  2   force =    -0.03669487    0.02979643    0.03669487
     atom   11 type  2   force =     0.03669487   -0.02979642   -0.03669487

     Total force =     0.170972     Total SCF correction =     0.000001


     Computing stress (Cartesian axis) and pressure

          total   stress  (Ry/bohr**3)                   (kbar)     P=     1002.94
   0.00681783  -0.00038041  -0.00038041         1002.94      -55.96      -55.96
  -0.00038041   0.00681783   0.00038041          -55.96     1002.94       55.96
  -0.00038041   0.00038041   0.00681783          -55.96       55.96     1002.94

     Energy error            =      3.9E-01
     Gradient error          =      3.7E-02
     Cell gradient error     =      5.1E-03


     number of scf cycles    =   2
     number of bfgs steps    =   1

     enthalpy old            =    -132.4779971568 Ry
     enthalpy new            =    -132.8728794901 Ry

     CASE: enthalpy_new < enthalpy_old

     new trust radius        =       0.3251568510 bohr
     new conv_thr            =            1.0E-10 Ry

     new unit-cell volume =    172.33550 a.u.^3 (    25.53749 Ang^3 )
     density =     12.03242 g/cm^3

CELL_PARAMETERS (alat=  9.30000000)
  -0.489270300   0.027873477   0.489270301
  -0.027873476   0.489270302   0.489270301
  -0.489270300   0.489270301   0.027873477

ATOMIC_POSITIONS (crystal)
Lu            0.0000000008        0.0000000000       -0.0000000001
H             0.2486998531        0.2486998531        0.2486998533
H             0.7513001467        0.7513001469        0.7513001467
H             0.3464294129        0.3464294129        0.3464294130
H            -0.3464294130       -0.3464294129       -0.3464294130
H             0.3258431004        0.3258431006       -0.2810789120
H            -0.3258431006       -0.3258431005        0.2810789118
H             0.3258431005       -0.2810789121        0.3258431007
H            -0.3258431006        0.2810789119       -0.3258431005
H            -0.2810789119        0.3258431005        0.3258431005
H             0.2810789116       -0.3258431005       -0.3258431004



     Writing output data file ./out/luh10.save/
     NEW-OLD atomic charge density approx. for the potential
     extrapolated charge   12.88781, renormalised to   21.00000

     total cpu time spent up to now is      165.8 secs

     Self-consistent Calculation

     iteration #  1     ecut=    80.00 Ry     beta= 0.30
     Davidson diagonalization with overlap
     ethr =  1.00E-06,  avg # of iterations = 12.0

     total cpu time spent up to now is      185.9 secs

     total energy              =    -131.15935987 Ry
     estimated scf accuracy    <       5.50219453 Ry

     iteration #  2     ecut=    80.00 Ry     beta= 0.30
     Davidson diagonalization with overlap
     ethr =  1.00E-02,  avg # of iterations =  3.0

     total cpu time spent up to now is      193.2 secs

     total energy              =    -135.05857989 Ry
     estimated scf accuracy    <       0.55118940 Ry

     iteration #  3     ecut=    80.00 Ry     beta= 0.30
     Davidson diagonalization with overlap
     ethr =  2.62E-03,  avg # of iterations =  1.9

     total cpu time spent up to now is      197.9 secs

     total energy              =    -134.93332030 Ry
     estimated scf accuracy    <       0.21029771 Ry

     iteration #  4     ecut=    80.00 Ry     beta= 0.30
     Davidson diagonalization with overlap
     ethr =  1.00E-03,  avg # of iterations =  2.1

     total cpu time spent up to now is      203.7 secs

     total energy              =    -134.98709197 Ry
     estimated scf accuracy    <       0.01114271 Ry

     iteration #  5     ecut=    80.00 Ry     beta= 0.30
     Davidson diagonalization with overlap
     ethr =  5.31E-05,  avg # of iterations =  3.4

     total cpu time spent up to now is      209.3 secs

     total energy              =    -134.98857814 Ry
     estimated scf accuracy    <       0.00026244 Ry

     iteration #  6     ecut=    80.00 Ry     beta= 0.30
     Davidson diagonalization with overlap
     ethr =  1.25E-06,  avg # of iterations =  3.9

     total cpu time spent up to now is      216.2 secs

     total energy              =    -134.98863619 Ry
     estimated scf accuracy    <       0.00002974 Ry

     iteration #  7     ecut=    80.00 Ry     beta= 0.30
     Davidson diagonalization with overlap
     ethr =  1.42E-07,  avg # of iterations =  1.6

     total cpu time spent up to now is      221.0 secs

     total energy              =    -134.98863562 Ry
     estimated scf accuracy    <       0.00000937 Ry

     iteration #  8     ecut=    80.00 Ry     beta= 0.30
     Davidson diagonalization with overlap
     ethr =  4.46E-08,  avg # of iterations =  1.1

     total cpu time spent up to now is      225.6 secs

     total energy              =    -134.98863497 Ry
     estimated scf accuracy    <       0.00000179 Ry

     iteration #  9     ecut=    80.00 Ry     beta= 0.30
     Davidson diagonalization with overlap
     ethr =  8.53E-09,  avg # of iterations =  2.0

     total cpu time spent up to now is      231.8 secs

     total energy              =    -134.98863557 Ry
     estimated scf accuracy    <       0.00000005 Ry

     iteration # 10     ecut=    80.00 Ry     beta= 0.30
     Davidson diagonalization with overlap
     ethr =  2.22E-10,  avg # of iterations =  1.2

     total cpu time spent up to now is      236.5 secs

     total energy              =    -134.98863559 Ry
     estimated scf accuracy    <          9.5E-09 Ry

     iteration # 11     ecut=    80.00 Ry     beta= 0.30
     Davidson diagonalization with overlap
     ethr =  4.52E-11,  avg # of iterations =  2.0

     total cpu time spent up to now is      242.3 secs

     total energy              =    -134.98863560 Ry
     estimated scf accuracy    <          1.7E-10 Ry

     iteration # 12     ecut=    80.00 Ry     beta= 0.30
     Davidson diagonalization with overlap
     ethr =  8.33E-13,  avg # of iterations =  2.1

     total cpu time spent up to now is      248.3 secs

     End of self-consistent calculation

     Number of k-points >= 100: set verbosity='high' to print the bands.

     the Fermi energy is    19.3420 ev

!    total energy              =    -134.98863561 Ry
     estimated scf accuracy    <          9.4E-12 Ry
     smearing contrib. (-TS)   =      -0.00036243 Ry
     internal energy E=F+TS    =    -134.98827318 Ry

     The total energy is F=E-TS. E is the sum of the following terms:
     one-electron contribution =      11.87617016 Ry
     hartree contribution      =       8.94951434 Ry
     xc contribution           =     -65.52895911 Ry
     ewald contribution        =     -90.28499858 Ry

     convergence has been achieved in  12 iterations

     Forces acting on atoms (cartesian axes, Ry/au):

     atom    1 type  1   force =     0.00000000   -0.00000000   -0.00000000
     atom    2 type  2   force =     0.02733406   -0.02733406   -0.02733406
     atom    3 type  2   force =    -0.02733406    0.02733406    0.02733406
     atom    4 type  2   force =    -0.00048631    0.00048631    0.00048631
     atom    5 type  2   force =     0.00048631   -0.00048631   -0.00048631
     atom    6 type  2   force =    -0.04388376    0.04388376    0.09639696
     atom    7 type  2   force =     0.04388376   -0.04388376   -0.09639695
     atom    8 type  2   force =    -0.09639696    0.04388376    0.04388376
     atom    9 type  2   force =     0.09639695   -0.04388376   -0.04388376
     atom   10 type  2   force =    -0.04388376    0.09639695    0.04388376
     atom   11 type  2   force =     0.04388376   -0.09639695   -0.04388376

     Total force =     0.288700     Total SCF correction =     0.000001


     Computing stress (Cartesian axis) and pressure

          total   stress  (Ry/bohr**3)                   (kbar)     P=     2690.00
   0.01828624  -0.00160946  -0.00160946         2690.00     -236.76     -236.76
  -0.00160946   0.01828624   0.00160946         -236.76     2690.00      236.76
  -0.00160946   0.00160946   0.01828624         -236.76      236.76     2690.00

     Energy error            =      6.6E-02
     Gradient error          =      9.6E-02
     Cell gradient error     =      6.4E-03


     number of scf cycles    =   3
     number of bfgs steps    =   2

     enthalpy old            =    -132.8728794901 Ry
     enthalpy new            =    -132.9384879936 Ry

     CASE: enthalpy_new < enthalpy_old

     new trust radius        =       0.1349004991 bohr
     new conv_thr            =            1.0E-10 Ry

     new unit-cell volume =    196.58459 a.u.^3 (    29.13083 Ang^3 )
     density =     10.54820 g/cm^3

CELL_PARAMETERS (alat=  9.30000000)
  -0.520329438   0.046106703   0.520329439
  -0.046106702   0.520329440   0.520329440
  -0.520329438   0.520329439   0.046106703

ATOMIC_POSITIONS (crystal)
Lu            0.0000000003       -0.0000000001       -0.0000000001
H             0.2472465372        0.2472465370        0.2472465373
H             0.7527534627        0.7527534630        0.7527534627
H             0.3472563613        0.3472563613        0.3472563614
H            -0.3472563613       -0.3472563613       -0.3472563614
H             0.3354393486        0.3354393488       -0.2860944920
H            -0.3354393485       -0.3354393485        0.2860944916
H             0.3354393488       -0.2860944924        0.3354393490
H            -0.3354393487        0.2860944920       -0.3354393487
H            -0.2860944919        0.3354393488        0.3354393484
H             0.2860944915       -0.3354393487       -0.3354393483



     Writing output data file ./out/luh10.save/
     NEW-OLD atomic charge density approx. for the potential
     extrapolated charge   23.58837, renormalised to   21.00000

     total cpu time spent up to now is      251.3 secs

     Self-consistent Calculation

     iteration #  1     ecut=    80.00 Ry     beta= 0.30
     Davidson diagonalization with overlap
     ethr =  1.00E-06,  avg # of iterations = 10.1

     total cpu time spent up to now is      267.2 secs

     total energy              =    -135.24415029 Ry
     estimated scf accuracy    <       0.12827853 Ry

     iteration #  2     ecut=    80.00 Ry     beta= 0.30
     Davidson diagonalization with overlap
     ethr =  6.11E-04,  avg # of iterations =  3.2

     total cpu time spent up to now is      274.5 secs

     total energy              =    -135.42050710 Ry
     estimated scf accuracy    <       0.04435248 Ry

     iteration #  3     ecut=    80.00 Ry     beta= 0.30
     Davidson diagonalization with overlap
     ethr =  2.11E-04,  avg # of iterations =  1.2

     total cpu time spent up to now is      279.0 secs

     total energy              =    -135.40556408 Ry
     estimated scf accuracy    <       0.02081774 Ry

     iteration #  4     ecut=    80.00 Ry     beta= 0.30
     Davidson diagonalization with overlap
     ethr =  9.91E-05,  avg # of iterations =  2.0

     total cpu time spent up to now is      285.5 secs

     total energy              =    -135.41303485 Ry
     estimated scf accuracy    <       0.00198229 Ry

     iteration #  5     ecut=    80.00 Ry     beta= 0.30
     Davidson diagonalization with overlap
     ethr =  9.44E-06,  avg # of iterations =  1.8

     total cpu time spent up to now is      290.3 secs

     total energy              =    -135.41207121 Ry
     estimated scf accuracy    <       0.00173007 Ry

     iteration #  6     ecut=    80.00 Ry     beta= 0.30
     Davidson diagonalization with overlap
     ethr =  8.24E-06,  avg # of iterations =  2.1

     total cpu time spent up to now is      295.6 secs

     total energy              =    -135.41229010 Ry
     estimated scf accuracy    <       0.00005503 Ry

     iteration #  7     ecut=    80.00 Ry     beta= 0.30
     Davidson diagonalization with overlap
     ethr =  2.62E-07,  avg # of iterations =  3.3

     total cpu time spent up to now is      302.3 secs

     total energy              =    -135.41232038 Ry
     estimated scf accuracy    <       0.00003196 Ry

     iteration #  8     ecut=    80.00 Ry     beta= 0.30
     Davidson diagonalization with overlap
     ethr =  1.52E-07,  avg # of iterations =  1.7

     total cpu time spent up to now is      307.3 secs

     total energy              =    -135.41232178 Ry
     estimated scf accuracy    <       0.00000291 Ry

     iteration #  9     ecut=    80.00 Ry     beta= 0.30
     Davidson diagonalization with overlap
     ethr =  1.38E-08,  avg # of iterations =  2.0

     total cpu time spent up to now is      313.4 secs

     total energy              =    -135.41232291 Ry
     estimated scf accuracy    <       0.00000012 Ry

     iteration # 10     ecut=    80.00 Ry     beta= 0.30
     Davidson diagonalization with overlap
     ethr =  5.52E-10,  avg # of iterations =  2.0

     total cpu time spent up to now is      318.5 secs

     total energy              =    -135.41232282 Ry
     estimated scf accuracy    <       0.00000017 Ry

     iteration # 11     ecut=    80.00 Ry     beta= 0.30
     Davidson diagonalization with overlap
     ethr =  5.52E-10,  avg # of iterations =  2.0

     total cpu time spent up to now is      324.5 secs

     total energy              =    -135.41232285 Ry
     estimated scf accuracy    <          3.4E-10 Ry

     iteration # 12     ecut=    80.00 Ry     beta= 0.30
     Davidson diagonalization with overlap
     ethr =  1.63E-12,  avg # of iterations =  3.3

     total cpu time spent up to now is      331.3 secs

     End of self-consistent calculation

     Number of k-points >= 100: set verbosity='high' to print the bands.

     the Fermi energy is    16.9781 ev

!    total energy              =    -135.41232286 Ry
     estimated scf accuracy    <          2.8E-11 Ry
     smearing contrib. (-TS)   =      -0.00025495 Ry
     internal energy E=F+TS    =    -135.41206791 Ry

     The total energy is F=E-TS. E is the sum of the following terms:
     one-electron contribution =       6.34889554 Ry
     hartree contribution      =       9.86399007 Ry
     xc contribution           =     -65.01333496 Ry
     ewald contribution        =     -86.61161856 Ry

     convergence has been achieved in  12 iterations

     Forces acting on atoms (cartesian axes, Ry/au):

     atom    1 type  1   force =    -0.00000000    0.00000000   -0.00000000
     atom    2 type  2   force =    -0.00195651    0.00195651    0.00195651
     atom    3 type  2   force =     0.00195651   -0.00195651   -0.00195651
     atom    4 type  2   force =     0.01642439   -0.01642439   -0.01642439
     atom    5 type  2   force =    -0.01642439    0.01642439    0.01642439
     atom    6 type  2   force =    -0.03030288    0.03030288    0.01045503
     atom    7 type  2   force =     0.03030288   -0.03030288   -0.01045503
     atom    8 type  2   force =    -0.01045503    0.03030288    0.03030288
     atom    9 type  2   force =     0.01045503   -0.03030288   -0.03030288
     atom   10 type  2   force =    -0.03030288    0.01045503    0.03030288
     atom   11 type  2   force =     0.03030288   -0.01045503   -0.03030288

     Total force =     0.115397     Total SCF correction =     0.000002


     Computing stress (Cartesian axis) and pressure

          total   stress  (Ry/bohr**3)                   (kbar)     P=     1788.59
   0.01215862  -0.00082634  -0.00082634         1788.59     -121.56     -121.56
  -0.00082634   0.01215862   0.00082634         -121.56     1788.59      121.56
  -0.00082634   0.00082634   0.01215862         -121.56      121.56     1788.59

     Energy error            =      1.4E-01
     Gradient error          =      3.0E-02
     Cell gradient error     =      8.3E-04


     number of scf cycles    =   4
     number of bfgs steps    =   3

     enthalpy old            =    -132.9384879936 Ry
     enthalpy new            =    -133.0737018374 Ry

     CASE: enthalpy_new < enthalpy_old

     new trust radius        =       0.1186649434 bohr
     new conv_thr            =            1.0E-10 Ry

     new unit-cell volume =    194.84479 a.u.^3 (    28.87302 Ang^3 )
     density =     10.64238 g/cm^3

CELL_PARAMETERS (alat=  9.30000000)
  -0.536175604   0.077112558   0.536175606
  -0.077112556   0.536175608   0.536175608
  -0.536175604   0.536175606   0.077112558

ATOMIC_POSITIONS (crystal)
Lu            0.0000000001       -0.0000000000       -0.0000000000
H             0.2470273236        0.2470273231        0.2470273236
H             0.7529726763        0.7529726770        0.7529726764
H             0.3431856026        0.3431856025        0.3431856028
H            -0.3431856026       -0.3431856026       -0.3431856029
H             0.3376208280        0.3376208284       -0.2753388551
H            -0.3376208277       -0.3376208279        0.2753388546
H             0.3376208286       -0.2753388562        0.3376208289
H            -0.3376208284        0.2753388557       -0.3376208284
H            -0.2753388550        0.3376208286        0.3376208276
H             0.2753388546       -0.3376208284       -0.3376208275



     Writing output data file ./out/luh10.save/
     NEW-OLD atomic charge density approx. for the potential
     extrapolated charge   20.81263, renormalised to   21.00000

     total cpu time spent up to now is      334.3 secs

     Self-consistent Calculation

     iteration #  1     ecut=    80.00 Ry     beta= 0.30
     Davidson diagonalization with overlap
     ethr =  1.00E-06,  avg # of iterations =  8.8

     total cpu time spent up to now is      349.1 secs

     total energy              =    -135.43575389 Ry
     estimated scf accuracy    <       0.00986279 Ry

     iteration #  2     ecut=    80.00 Ry     beta= 0.30
     Davidson diagonalization with overlap
     ethr =  4.70E-05,  avg # of iterations =  2.0

     total cpu time spent up to now is      355.0 secs

     total energy              =    -135.43769225 Ry
     estimated scf accuracy    <       0.00184856 Ry

     iteration #  3     ecut=    80.00 Ry     beta= 0.30
     Davidson diagonalization with overlap
     ethr =  8.80E-06,  avg # of iterations =  1.3

     total cpu time spent up to now is      359.6 secs

     total energy              =    -135.43760678 Ry
     estimated scf accuracy    <       0.00064085 Ry

     iteration #  4     ecut=    80.00 Ry     beta= 0.30
     Davidson diagonalization with overlap
     ethr =  3.05E-06,  avg # of iterations =  2.2

     total cpu time spent up to now is      364.7 secs

     total energy              =    -135.43764281 Ry
     estimated scf accuracy    <       0.00003555 Ry

     iteration #  5     ecut=    80.00 Ry     beta= 0.30
     Davidson diagonalization with overlap
     ethr =  1.69E-07,  avg # of iterations =  1.7

     total cpu time spent up to now is      369.7 secs

     total energy              =    -135.43764678 Ry
     estimated scf accuracy    <       0.00000061 Ry

     iteration #  6     ecut=    80.00 Ry     beta= 0.30
     Davidson diagonalization with overlap
     ethr =  2.89E-09,  avg # of iterations =  2.3

     total cpu time spent up to now is      375.1 secs

     total energy              =    -135.43764706 Ry
     estimated scf accuracy    <       0.00000014 Ry

     iteration #  7     ecut=    80.00 Ry     beta= 0.30
     Davidson diagonalization with overlap
     ethr =  6.73E-10,  avg # of iterations =  1.9

     total cpu time spent up to now is      380.1 secs

     total energy              =    -135.43764713 Ry
     estimated scf accuracy    <       0.00000002 Ry

     iteration #  8     ecut=    80.00 Ry     beta= 0.30
     Davidson diagonalization with overlap
     ethr =  8.38E-11,  avg # of iterations =  2.0

     total cpu time spent up to now is      385.1 secs

     total energy              =    -135.43764717 Ry
     estimated scf accuracy    <          1.9E-09 Ry

     iteration #  9     ecut=    80.00 Ry     beta= 0.30
     Davidson diagonalization with overlap
     ethr =  8.96E-12,  avg # of iterations =  2.1

     total cpu time spent up to now is      391.2 secs

     total energy              =    -135.43764718 Ry
     estimated scf accuracy    <          6.8E-10 Ry

     iteration # 10     ecut=    80.00 Ry     beta= 0.30
     Davidson diagonalization with overlap
     ethr =  3.24E-12,  avg # of iterations =  2.0

     total cpu time spent up to now is      396.7 secs

     End of self-consistent calculation

     Number of k-points >= 100: set verbosity='high' to print the bands.

     the Fermi energy is    17.2701 ev

!    total energy              =    -135.43764720 Ry
     estimated scf accuracy    <          4.0E-11 Ry
     smearing contrib. (-TS)   =       0.00016699 Ry
     internal energy E=F+TS    =    -135.43781419 Ry

     The total energy is F=E-TS. E is the sum of the following terms:
     one-electron contribution =       6.62144700 Ry
     hartree contribution      =       9.84140598 Ry
     xc contribution           =     -65.03340657 Ry
     ewald contribution        =     -86.86726060 Ry

     convergence has been achieved in  10 iterations

     Forces acting on atoms (cartesian axes, Ry/au):

     atom    1 type  1   force =    -0.00000000    0.00000000    0.00000000
     atom    2 type  2   force =    -0.00814616    0.00814616    0.00814616
     atom    3 type  2   force =     0.00814616   -0.00814616   -0.00814616
     atom    4 type  2   force =     0.00881659   -0.00881659   -0.00881659
     atom    5 type  2   force =    -0.00881659    0.00881659    0.00881659
     atom    6 type  2   force =    -0.02303930    0.02303930   -0.03615525
     atom    7 type  2   force =     0.02303930   -0.02303930    0.03615525
     atom    8 type  2   force =     0.03615524    0.02303930    0.02303930
     atom    9 type  2   force =    -0.03615524   -0.02303930   -0.02303930
     atom   10 type  2   force =    -0.02303930   -0.03615524    0.02303930
     atom   11 type  2   force =     0.02303930    0.03615524   -0.02303930

     Total force =     0.122790     Total SCF correction =     0.000003


     Computing stress (Cartesian axis) and pressure

          total   stress  (Ry/bohr**3)                   (kbar)     P=     1821.88
   0.01238492  -0.00054024  -0.00054024         1821.88      -79.47      -79.47
  -0.00054024   0.01238492   0.00054024          -79.47     1821.88       79.47
  -0.00054024   0.00054024   0.01238492          -79.47       79.47     1821.88

     Energy error            =      4.6E-02
     Gradient error          =      3.6E-02
     Cell gradient error     =      5.4E-04


     number of scf cycles    =   5
     number of bfgs steps    =   4

     enthalpy old            =    -133.0737018374 Ry
     enthalpy new            =    -133.1197232225 Ry

     CASE: enthalpy_new < enthalpy_old

     new trust radius        =       0.1736093053 bohr
     new conv_thr            =            1.0E-10 Ry

     new unit-cell volume =    192.32754 a.u.^3 (    28.50000 Ang^3 )
     density =     10.78168 g/cm^3

CELL_PARAMETERS (alat=  9.30000000)
  -0.561812849   0.124041997   0.561812855
  -0.124041992   0.561812858   0.561812859
  -0.561812849   0.561812853   0.124041997

ATOMIC_POSITIONS (crystal)
Lu           -0.0000000001        0.0000000001        0.0000000001
H             0.2480527681        0.2480527670        0.2480527678
H             0.7519472318        0.7519472330        0.7519472323
H             0.3369729078        0.3369729075        0.3369729082
H            -0.3369729076       -0.3369729077       -0.3369729084
H             0.3343486391        0.3343486399       -0.2513156674
H            -0.3343486388       -0.3343486394        0.2513156668
H             0.3343486410       -0.2513156704        0.3343486415
H            -0.3343486407        0.2513156698       -0.3343486410
H            -0.2513156675        0.3343486412        0.3343486383
H             0.2513156668       -0.3343486409       -0.3343486381



     Writing output data file ./out/luh10.save/
     NEW-OLD atomic charge density approx. for the potential
     extrapolated charge   20.72536, renormalised to   21.00000

     total cpu time spent up to now is      399.7 secs

     Self-consistent Calculation

     iteration #  1     ecut=    80.00 Ry     beta= 0.30
     Davidson diagonalization with overlap
     c_bands:  1 eigenvalues not converged
     c_bands:  1 eigenvalues not converged
     c_bands:  1 eigenvalues not converged
     c_bands:  1 eigenvalues not converged
     c_bands:  1 eigenvalues not converged
     c_bands:  1 eigenvalues not converged
     ethr =  1.00E-06,  avg # of iterations = 10.2

     total cpu time spent up to now is      416.1 secs

     total energy              =    -135.44906858 Ry
     estimated scf accuracy    <       0.03930480 Ry

     iteration #  2     ecut=    80.00 Ry     beta= 0.30
     Davidson diagonalization with overlap
     ethr =  1.87E-04,  avg # of iterations =  2.1

     total cpu time spent up to now is      421.7 secs

     total energy              =    -135.45790299 Ry
     estimated scf accuracy    <       0.00334894 Ry

     iteration #  3     ecut=    80.00 Ry     beta= 0.30
     Davidson diagonalization with overlap
     ethr =  1.59E-05,  avg # of iterations =  3.0

     total cpu time spent up to now is      426.8 secs

     total energy              =    -135.45778664 Ry
     estimated scf accuracy    <       0.00122037 Ry

     iteration #  4     ecut=    80.00 Ry     beta= 0.30
     Davidson diagonalization with overlap
     ethr =  5.81E-06,  avg # of iterations =  2.2

     total cpu time spent up to now is      431.9 secs

     total energy              =    -135.45788331 Ry
     estimated scf accuracy    <       0.00004541 Ry

     iteration #  5     ecut=    80.00 Ry     beta= 0.30
     Davidson diagonalization with overlap
     ethr =  2.16E-07,  avg # of iterations =  2.2

     total cpu time spent up to now is      437.0 secs

     total energy              =    -135.45788760 Ry
     estimated scf accuracy    <       0.00000303 Ry

     iteration #  6     ecut=    80.00 Ry     beta= 0.30
     Davidson diagonalization with overlap
     ethr =  1.44E-08,  avg # of iterations =  2.0

     total cpu time spent up to now is      442.2 secs

     total energy              =    -135.45788830 Ry
     estimated scf accuracy    <       0.00000052 Ry

     iteration #  7     ecut=    80.00 Ry     beta= 0.30
     Davidson diagonalization with overlap
     ethr =  2.49E-09,  avg # of iterations =  1.6

     total cpu time spent up to now is      446.9 secs

     total energy              =    -135.45788845 Ry
     estimated scf accuracy    <       0.00000002 Ry

     iteration #  8     ecut=    80.00 Ry     beta= 0.30
     Davidson diagonalization with overlap
     ethr =  8.51E-11,  avg # of iterations =  2.1

     total cpu time spent up to now is      452.2 secs

     total energy              =    -135.45788850 Ry
     estimated scf accuracy    <          3.2E-09 Ry

     iteration #  9     ecut=    80.00 Ry     beta= 0.30
     Davidson diagonalization with overlap
     ethr =  1.52E-11,  avg # of iterations =  2.2

     total cpu time spent up to now is      458.3 secs

     total energy              =    -135.45788853 Ry
     estimated scf accuracy    <          2.0E-09 Ry

     iteration # 10     ecut=    80.00 Ry     beta= 0.30
     Davidson diagonalization with overlap
     ethr =  9.56E-12,  avg # of iterations =  2.0

     total cpu time spent up to now is      463.3 secs

     End of self-consistent calculation

     Number of k-points >= 100: set verbosity='high' to print the bands.

     the Fermi energy is    17.4740 ev

!    total energy              =    -135.45788855 Ry
     estimated scf accuracy    <          2.8E-11 Ry
     smearing contrib. (-TS)   =      -0.00000868 Ry
     internal energy E=F+TS    =    -135.45787987 Ry

     The total energy is F=E-TS. E is the sum of the following terms:
     one-electron contribution =       6.48583865 Ry
     hartree contribution      =      10.09647387 Ry
     xc contribution           =     -65.09478869 Ry
     ewald contribution        =     -86.94540370 Ry

     convergence has been achieved in  10 iterations

     Forces acting on atoms (cartesian axes, Ry/au):

     atom    1 type  1   force =    -0.00000000   -0.00000000    0.00000000
     atom    2 type  2   force =    -0.00883181    0.00883181    0.00883181
     atom    3 type  2   force =     0.00883181   -0.00883181   -0.00883181
     atom    4 type  2   force =    -0.00918819    0.00918819    0.00918819
     atom    5 type  2   force =     0.00918819   -0.00918819   -0.00918819
     atom    6 type  2   force =    -0.01901223    0.01901223   -0.06662725
     atom    7 type  2   force =     0.01901222   -0.01901223    0.06662725
     atom    8 type  2   force =     0.06662724    0.01901222    0.01901223
     atom    9 type  2   force =    -0.06662724   -0.01901222   -0.01901223
     atom   10 type  2   force =    -0.01901222   -0.06662725    0.01901224
     atom   11 type  2   force =     0.01901222    0.06662725   -0.01901224

     Total force =     0.178738     Total SCF correction =     0.000003


     Computing stress (Cartesian axis) and pressure

          total   stress  (Ry/bohr**3)                   (kbar)     P=     1923.70
   0.01307707  -0.00031705  -0.00031705         1923.70      -46.64      -46.64
  -0.00031705   0.01307707   0.00031705          -46.64     1923.70       46.64
  -0.00031705   0.00031705   0.01307707          -46.64       46.64     1923.70

     Energy error            =      5.0E-02
     Gradient error          =      6.7E-02
     Cell gradient error     =      1.2E-03


     number of scf cycles    =   6
     number of bfgs steps    =   5

     enthalpy old            =    -133.1197232225 Ry
     enthalpy new            =    -133.1699104807 Ry

     CASE: enthalpy_new < enthalpy_old

     new trust radius        =       0.2510859649 bohr
     new conv_thr            =            1.0E-10 Ry

     new unit-cell volume =    191.03339 a.u.^3 (    28.30823 Ang^3 )
     density =     10.85472 g/cm^3

CELL_PARAMETERS (alat=  9.30000000)
  -0.606652904   0.196163013   0.606652920
  -0.196163004   0.606652927   0.606652932
  -0.606652902   0.606652914   0.196163013

ATOMIC_POSITIONS (crystal)
Lu           -0.0000000002        0.0000000002        0.0000000002
H             0.2507413036        0.2507413022        0.2507413019
H             0.7492586962        0.7492586978        0.7492586981
H             0.3300431119        0.3300431121        0.3300431134
H            -0.3300431117       -0.3300431124       -0.3300431137
H             0.3237972702        0.3237972729       -0.2072789892
H            -0.3237972697       -0.3237972725        0.2072789885
H             0.3237972756       -0.2072789961        0.3237972758
H            -0.3237972751        0.2072789955       -0.3237972754
H            -0.2072789896        0.3237972771        0.3237972683
H             0.2072789887       -0.3237972767       -0.3237972679



     Writing output data file ./out/luh10.save/
     NEW-OLD atomic charge density approx. for the potential
     extrapolated charge   20.85785, renormalised to   21.00000

     total cpu time spent up to now is      466.3 secs

     Self-consistent Calculation

     iteration #  1     ecut=    80.00 Ry     beta= 0.30
     Davidson diagonalization with overlap
     c_bands:  1 eigenvalues not converged
     c_bands:  1 eigenvalues not converged
     c_bands:  1 eigenvalues not converged
     c_bands:  1 eigenvalues not converged
     c_bands:  1 eigenvalues not converged
     c_bands:  1 eigenvalues not converged
     ethr =  1.00E-06,  avg # of iterations = 11.0

     total cpu time spent up to now is      483.4 secs

     total energy              =    -135.43212638 Ry
     estimated scf accuracy    <       0.08443518 Ry

     iteration #  2     ecut=    80.00 Ry     beta= 0.30
     Davidson diagonalization with overlap
     ethr =  4.02E-04,  avg # of iterations =  2.1

     total cpu time spent up to now is      488.7 secs

     total energy              =    -135.44665212 Ry
     estimated scf accuracy    <       0.00712633 Ry

     iteration #  3     ecut=    80.00 Ry     beta= 0.30
     Davidson diagonalization with overlap
     ethr =  3.39E-05,  avg # of iterations =  3.1

     total cpu time spent up to now is      494.0 secs

     total energy              =    -135.44636646 Ry
     estimated scf accuracy    <       0.00260753 Ry

     iteration #  4     ecut=    80.00 Ry     beta= 0.30
     Davidson diagonalization with overlap
     ethr =  1.24E-05,  avg # of iterations =  2.1

     total cpu time spent up to now is      499.2 secs

     total energy              =    -135.44662971 Ry
     estimated scf accuracy    <       0.00009287 Ry

     iteration #  5     ecut=    80.00 Ry     beta= 0.30
     Davidson diagonalization with overlap
     ethr =  4.42E-07,  avg # of iterations =  3.1

     total cpu time spent up to now is      504.9 secs

     total energy              =    -135.44664331 Ry
     estimated scf accuracy    <       0.00001316 Ry

     iteration #  6     ecut=    80.00 Ry     beta= 0.30
     Davidson diagonalization with overlap
     ethr =  6.27E-08,  avg # of iterations =  1.1

     total cpu time spent up to now is      509.5 secs

     total energy              =    -135.44664396 Ry
     estimated scf accuracy    <       0.00000230 Ry

     iteration #  7     ecut=    80.00 Ry     beta= 0.30
     Davidson diagonalization with overlap
     ethr =  1.10E-08,  avg # of iterations =  2.0

     total cpu time spent up to now is      515.2 secs

     total energy              =    -135.44664476 Ry
     estimated scf accuracy    <       0.00000040 Ry

     iteration #  8     ecut=    80.00 Ry     beta= 0.30
     Davidson diagonalization with overlap
     ethr =  1.91E-09,  avg # of iterations =  1.8

     total cpu time spent up to now is      520.0 secs

     total energy              =    -135.44664494 Ry
     estimated scf accuracy    <          8.0E-09 Ry

     iteration #  9     ecut=    80.00 Ry     beta= 0.30
     Davidson diagonalization with overlap
     ethr =  3.83E-11,  avg # of iterations =  2.6

     total cpu time spent up to now is      526.0 secs

     total energy              =    -135.44664500 Ry
     estimated scf accuracy    <          2.4E-09 Ry

     iteration # 10     ecut=    80.00 Ry     beta= 0.30
     Davidson diagonalization with overlap
     ethr =  1.13E-11,  avg # of iterations =  1.0

     total cpu time spent up to now is      530.4 secs

     total energy              =    -135.44664503 Ry
     estimated scf accuracy    <          4.6E-10 Ry

     iteration # 11     ecut=    80.00 Ry     beta= 0.30
     Davidson diagonalization with overlap
     ethr =  2.18E-12,  avg # of iterations =  2.0

     total cpu time spent up to now is      535.6 secs

     End of self-consistent calculation

     Number of k-points >= 100: set verbosity='high' to print the bands.

     the Fermi energy is    17.0783 ev

!    total energy              =    -135.44664505 Ry
     estimated scf accuracy    <          9.6E-12 Ry
     smearing contrib. (-TS)   =      -0.00010587 Ry
     internal energy E=F+TS    =    -135.44653919 Ry

     The total energy is F=E-TS. E is the sum of the following terms:
     one-electron contribution =       4.35413719 Ry
     hartree contribution      =      11.25053402 Ry
     xc contribution           =     -65.20607632 Ry
     ewald contribution        =     -85.84513407 Ry

     convergence has been achieved in  11 iterations

     Forces acting on atoms (cartesian axes, Ry/au):

     atom    1 type  1   force =    -0.00000000   -0.00000000    0.00000000
     atom    2 type  2   force =    -0.00165746    0.00165748    0.00165748
     atom    3 type  2   force =     0.00165746   -0.00165748   -0.00165749
     atom    4 type  2   force =    -0.02021246    0.02021247    0.02021246
     atom    5 type  2   force =     0.02021246   -0.02021247   -0.02021247
     atom    6 type  2   force =    -0.00429143    0.00429144   -0.07202502
     atom    7 type  2   force =     0.00429143   -0.00429144    0.07202502
     atom    8 type  2   force =     0.07202502    0.00429144    0.00429144
     atom    9 type  2   force =    -0.07202502   -0.00429144   -0.00429144
     atom   10 type  2   force =    -0.00429143   -0.07202502    0.00429145
     atom   11 type  2   force =     0.00429143    0.07202502   -0.00429145

     Total force =     0.183887     Total SCF correction =     0.000002


     Computing stress (Cartesian axis) and pressure

          total   stress  (Ry/bohr**3)                   (kbar)     P=     2094.47
   0.01423794   0.00159846   0.00159846         2094.47      235.14      235.14
   0.00159846   0.01423794  -0.00159846          235.14     2094.47     -235.14
   0.00159846  -0.00159846   0.01423794          235.14     -235.14     2094.47

     Energy error            =      4.2E-03
     Gradient error          =      7.2E-02
     Cell gradient error     =      2.3E-03


     number of scf cycles    =   7
     number of bfgs steps    =   6

     enthalpy old            =    -133.1699104807 Ry
     enthalpy new            =    -133.1740624715 Ry

     CASE: enthalpy_new < enthalpy_old

     new trust radius        =       0.1398059961 bohr
     new conv_thr            =            1.0E-10 Ry

     new unit-cell volume =    201.30186 a.u.^3 (    29.82986 Ang^3 )
     density =     10.30101 g/cm^3

CELL_PARAMETERS (alat=  9.30000000)
  -0.591332946   0.159523011   0.591332961
  -0.159523005   0.591332964   0.591332969
  -0.591332945   0.591332955   0.159523010

ATOMIC_POSITIONS (crystal)
Lu           -0.0000000000        0.0000000001        0.0000000002
H             0.2507256679        0.2507256678        0.2507256658
H             0.7492743320        0.7492743323        0.7492743342
H             0.3333027785        0.3333027794        0.3333027803
H            -0.3333027784       -0.3333027796       -0.3333027806
H             0.3233907658        0.3233907688       -0.2166756978
H            -0.3233907654       -0.3233907685        0.2166756972
H             0.3233907709       -0.2166757033        0.3233907711
H            -0.3233907705        0.2166757027       -0.3233907708
H            -0.2166756978        0.3233907729        0.3233907640
H             0.2166756970       -0.3233907726       -0.3233907637



     Writing output data file ./out/luh10.save/
     NEW-OLD atomic charge density approx. for the potential
     extrapolated charge   22.07038, renormalised to   21.00000

     total cpu time spent up to now is      538.6 secs

     Self-consistent Calculation

     iteration #  1     ecut=    80.00 Ry     beta= 0.30
     Davidson diagonalization with overlap
     ethr =  1.00E-06,  avg # of iterations = 10.1

     total cpu time spent up to now is      553.9 secs

     total energy              =    -135.55849522 Ry
     estimated scf accuracy    <       0.08074730 Ry

     iteration #  2     ecut=    80.00 Ry     beta= 0.30
     Davidson diagonalization with overlap
     ethr =  3.85E-04,  avg # of iterations =  3.1

     total cpu time spent up to now is      561.0 secs

     total energy              =    -135.61631061 Ry
     estimated scf accuracy    <       0.01898489 Ry

     iteration #  3     ecut=    80.00 Ry     beta= 0.30
     Davidson diagonalization with overlap
     ethr =  9.04E-05,  avg # of iterations =  1.7

     total cpu time spent up to now is      565.8 secs

     total energy              =    -135.61280738 Ry
     estimated scf accuracy    <       0.00600130 Ry

     iteration #  4     ecut=    80.00 Ry     beta= 0.30
     Davidson diagonalization with overlap
     ethr =  2.86E-05,  avg # of iterations =  2.6

     total cpu time spent up to now is      572.5 secs

     total energy              =    -135.61505011 Ry
     estimated scf accuracy    <       0.00227501 Ry

     iteration #  5     ecut=    80.00 Ry     beta= 0.30
     Davidson diagonalization with overlap
     ethr =  1.08E-05,  avg # of iterations =  1.4

     total cpu time spent up to now is      577.2 secs

     total energy              =    -135.61501765 Ry
     estimated scf accuracy    <       0.00032739 Ry

     iteration #  6     ecut=    80.00 Ry     beta= 0.30
     Davidson diagonalization with overlap
     ethr =  1.56E-06,  avg # of iterations =  3.8

     total cpu time spent up to now is      584.1 secs

     total energy              =    -135.61513001 Ry
     estimated scf accuracy    <       0.00005314 Ry

     iteration #  7     ecut=    80.00 Ry     beta= 0.30
     Davidson diagonalization with overlap
     ethr =  2.53E-07,  avg # of iterations =  2.0

     total cpu time spent up to now is      589.3 secs

     total energy              =    -135.61514050 Ry
     estimated scf accuracy    <       0.00000028 Ry

     iteration #  8     ecut=    80.00 Ry     beta= 0.30
     Davidson diagonalization with overlap
     ethr =  1.35E-09,  avg # of iterations =  2.5

     total cpu time spent up to now is      595.4 secs

     total energy              =    -135.61514054 Ry
     estimated scf accuracy    <       0.00000021 Ry

     iteration #  9     ecut=    80.00 Ry     beta= 0.30
     Davidson diagonalization with overlap
     ethr =  1.02E-09,  avg # of iterations =  2.0

     total cpu time spent up to now is      600.5 secs

     total energy              =    -135.61514059 Ry
     estimated scf accuracy    <       0.00000001 Ry

     iteration # 10     ecut=    80.00 Ry     beta= 0.30
     Davidson diagonalization with overlap
     ethr =  5.04E-11,  avg # of iterations =  2.9

     total cpu time spent up to now is      606.8 secs

     total energy              =    -135.61514060 Ry
     estimated scf accuracy    <          6.7E-09 Ry

     iteration # 11     ecut=    80.00 Ry     beta= 0.30
     Davidson diagonalization with overlap
     ethr =  3.17E-11,  avg # of iterations =  2.0

     total cpu time spent up to now is      612.2 secs

     End of self-consistent calculation

     Number of k-points >= 100: set verbosity='high' to print the bands.

     the Fermi energy is    16.3690 ev

!    total energy              =    -135.61514061 Ry
     estimated scf accuracy    <          8.3E-11 Ry
     smearing contrib. (-TS)   =       0.00002445 Ry
     internal energy E=F+TS    =    -135.61516506 Ry

     The total energy is F=E-TS. E is the sum of the following terms:
     one-electron contribution =       3.70503300 Ry
     hartree contribution      =      10.86742158 Ry
     xc contribution           =     -64.93891774 Ry
     ewald contribution        =     -85.24870190 Ry

     convergence has been achieved in  11 iterations

     Forces acting on atoms (cartesian axes, Ry/au):

     atom    1 type  1   force =     0.00000000   -0.00000000    0.00000000
     atom    2 type  2   force =    -0.00421481    0.00421482    0.00421483
     atom    3 type  2   force =     0.00421481   -0.00421482   -0.00421483
     atom    4 type  2   force =    -0.01939129    0.01939129    0.01939128
     atom    5 type  2   force =     0.01939129   -0.01939129   -0.01939128
     atom    6 type  2   force =    -0.01302478    0.01302479   -0.03943963
     atom    7 type  2   force =     0.01302478   -0.01302479    0.03943963
     atom    8 type  2   force =     0.03943963    0.01302479    0.01302479
     atom    9 type  2   force =    -0.03943963   -0.01302479   -0.01302479
     atom   10 type  2   force =    -0.01302478   -0.03943963    0.01302480
     atom   11 type  2   force =     0.01302478    0.03943963   -0.01302480

     Total force =     0.117181     Total SCF correction =     0.000005


     Computing stress (Cartesian axis) and pressure

          total   stress  (Ry/bohr**3)                   (kbar)     P=     1682.23
   0.01143557   0.00014639   0.00014639         1682.23       21.54       21.54
   0.00014639   0.01143557  -0.00014639           21.54     1682.23      -21.53
   0.00014639  -0.00014639   0.01143557           21.54      -21.53     1682.23

     Energy error            =      4.6E-02
     Gradient error          =      3.9E-02
     Cell gradient error     =      4.6E-04


     number of scf cycles    =   8
     number of bfgs steps    =   7

     enthalpy old            =    -133.1740624715 Ry
     enthalpy new            =    -133.2204017288 Ry

     CASE: enthalpy_new < enthalpy_old

     new trust radius        =       0.0461245345 bohr
     new conv_thr            =            1.0E-10 Ry

     new unit-cell volume =    201.07332 a.u.^3 (    29.79599 Ang^3 )
     density =     10.31272 g/cm^3

CELL_PARAMETERS (alat=  9.30000000)
  -0.591385990   0.159898680   0.591386008
  -0.159898673   0.591386012   0.591386019
  -0.591385989   0.591386000   0.159898679

ATOMIC_POSITIONS (crystal)
Lu            0.0000000000        0.0000000000        0.0000000001
H             0.2513211360        0.2513211374        0.2513211325
H             0.7486788639        0.7486788627        0.7486788676
H             0.3354353944        0.3354353949        0.3354353974
H            -0.3354353945       -0.3354353951       -0.3354353976
H             0.3191355324        0.3191355369       -0.2070710194
H            -0.3191355319       -0.3191355366        0.2070710188
H             0.3191355391       -0.2070710247        0.3191355396
H            -0.3191355386        0.2070710241       -0.3191355392
H            -0.2070710188        0.3191355423        0.3191355302
H             0.2070710180       -0.3191355420       -0.3191355299



     Writing output data file ./out/luh10.save/
     NEW-OLD atomic charge density approx. for the potential
     extrapolated charge   20.97615, renormalised to   21.00000

     total cpu time spent up to now is      615.2 secs

     Self-consistent Calculation

     iteration #  1     ecut=    80.00 Ry     beta= 0.30
     Davidson diagonalization with overlap
     ethr =  1.00E-06,  avg # of iterations =  5.6

     total cpu time spent up to now is      624.8 secs

     total energy              =    -135.62539395 Ry
     estimated scf accuracy    <       0.00102483 Ry

     iteration #  2     ecut=    80.00 Ry     beta= 0.30
     Davidson diagonalization with overlap
     ethr =  4.88E-06,  avg # of iterations =  1.1

     total cpu time spent up to now is      629.3 secs

     total energy              =    -135.62534661 Ry
     estimated scf accuracy    <       0.00033887 Ry

     iteration #  3     ecut=    80.00 Ry     beta= 0.30
     Davidson diagonalization with overlap
     ethr =  1.61E-06,  avg # of iterations =  1.9

     total cpu time spent up to now is      634.2 secs

     total energy              =    -135.62535625 Ry
     estimated scf accuracy    <       0.00004238 Ry

     iteration #  4     ecut=    80.00 Ry     beta= 0.30
     Davidson diagonalization with overlap
     ethr =  2.02E-07,  avg # of iterations =  2.0

     total cpu time spent up to now is      639.3 secs

     total energy              =    -135.62536043 Ry
     estimated scf accuracy    <       0.00000321 Ry

     iteration #  5     ecut=    80.00 Ry     beta= 0.30
     Davidson diagonalization with overlap
     ethr =  1.53E-08,  avg # of iterations =  2.0

     total cpu time spent up to now is      644.5 secs

     total energy              =    -135.62536086 Ry
     estimated scf accuracy    <       0.00000025 Ry

     iteration #  6     ecut=    80.00 Ry     beta= 0.30
     Davidson diagonalization with overlap
     ethr =  1.17E-09,  avg # of iterations =  2.0

     total cpu time spent up to now is      649.8 secs

     total energy              =    -135.62536091 Ry
     estimated scf accuracy    <       0.00000003 Ry

     iteration #  7     ecut=    80.00 Ry     beta= 0.30
     Davidson diagonalization with overlap
     ethr =  1.37E-10,  avg # of iterations =  1.9

     total cpu time spent up to now is      654.7 secs

     total energy              =    -135.62536091 Ry
     estimated scf accuracy    <          4.9E-09 Ry

     iteration #  8     ecut=    80.00 Ry     beta= 0.30
     Davidson diagonalization with overlap
     ethr =  2.31E-11,  avg # of iterations =  2.0

     total cpu time spent up to now is      660.0 secs

     total energy              =    -135.62536092 Ry
     estimated scf accuracy    <          3.3E-10 Ry

     iteration #  9     ecut=    80.00 Ry     beta= 0.30
     Davidson diagonalization with overlap
     ethr =  1.58E-12,  avg # of iterations =  2.0

     total cpu time spent up to now is      665.5 secs

     End of self-consistent calculation

     Number of k-points >= 100: set verbosity='high' to print the bands.

     the Fermi energy is    16.2736 ev

!    total energy              =    -135.62536092 Ry
     estimated scf accuracy    <          1.7E-11 Ry
     smearing contrib. (-TS)   =       0.00001588 Ry
     internal energy E=F+TS    =    -135.62537680 Ry

     The total energy is F=E-TS. E is the sum of the following terms:
     one-electron contribution =       3.79112401 Ry
     hartree contribution      =      10.84968154 Ry
     xc contribution           =     -64.92742268 Ry
     ewald contribution        =     -85.33875967 Ry

     convergence has been achieved in   9 iterations

     Forces acting on atoms (cartesian axes, Ry/au):

     atom    1 type  1   force =    -0.00000000    0.00000000    0.00000000
     atom    2 type  2   force =    -0.00635548    0.00635549    0.00635550
     atom    3 type  2   force =     0.00635548   -0.00635549   -0.00635550
     atom    4 type  2   force =    -0.01876766    0.01876766    0.01876765
     atom    5 type  2   force =     0.01876766   -0.01876766   -0.01876765
     atom    6 type  2   force =    -0.01228293    0.01228293   -0.02334866
     atom    7 type  2   force =     0.01228293   -0.01228293    0.02334866
     atom    8 type  2   force =     0.02334865    0.01228293    0.01228293
     atom    9 type  2   force =    -0.02334865   -0.01228293   -0.01228293
     atom   10 type  2   force =    -0.01228293   -0.02334866    0.01228294
     atom   11 type  2   force =     0.01228293    0.02334866   -0.01228294

     Total force =     0.086239     Total SCF correction =     0.000003


     Computing stress (Cartesian axis) and pressure

          total   stress  (Ry/bohr**3)                   (kbar)     P=     1676.19
   0.01139454   0.00014391   0.00014391         1676.19       21.17       21.17
   0.00014391   0.01139454  -0.00014391           21.17     1676.19      -21.17
   0.00014391  -0.00014391   0.01139454           21.17      -21.17     1676.19

     Energy error            =      1.3E-02
     Gradient error          =      2.3E-02
     Cell gradient error     =      5.0E-04


     number of scf cycles    =   9
     number of bfgs steps    =   8

     enthalpy old            =    -133.2204017288 Ry
     enthalpy new            =    -133.2333408313 Ry

     CASE: enthalpy_new < enthalpy_old

     new trust radius        =       0.0691858125 bohr
     new conv_thr            =            1.0E-10 Ry

     new unit-cell volume =    200.25196 a.u.^3 (    29.67428 Ang^3 )
     density =     10.35502 g/cm^3

CELL_PARAMETERS (alat=  9.30000000)
  -0.590065926   0.158871540   0.590065950
  -0.158871530   0.590065955   0.590065966
  -0.590065924   0.590065937   0.158871539

ATOMIC_POSITIONS (crystal)
Lu            0.0000000001        0.0000000001        0.0000000001
H             0.2524605625        0.2524605665        0.2524605566
H             0.7475394373        0.7475394335        0.7475394434
H             0.3386343180        0.3386343183        0.3386343231
H            -0.3386343182       -0.3386343185       -0.3386343233
H             0.3152015479        0.3152015545       -0.1968156761
H            -0.3152015473       -0.3152015541        0.1968156756
H             0.3152015570       -0.1968156809        0.3152015578
H            -0.3152015565        0.1968156804       -0.3152015575
H            -0.1968156743        0.3152015619        0.3152015450
H             0.1968156735       -0.3152015614       -0.3152015447



     Writing output data file ./out/luh10.save/
     NEW-OLD atomic charge density approx. for the potential
     extrapolated charge   20.91393, renormalised to   21.00000

     total cpu time spent up to now is      668.6 secs

     Self-consistent Calculation

     iteration #  1     ecut=    80.00 Ry     beta= 0.30
     Davidson diagonalization with overlap
     ethr =  1.00E-06,  avg # of iterations =  6.4

     total cpu time spent up to now is      678.9 secs

     total energy              =    -135.62790538 Ry
     estimated scf accuracy    <       0.00124956 Ry

     iteration #  2     ecut=    80.00 Ry     beta= 0.30
     Davidson diagonalization with overlap
     ethr =  5.95E-06,  avg # of iterations =  2.4

     total cpu time spent up to now is      685.1 secs

     total energy              =    -135.62817289 Ry
     estimated scf accuracy    <       0.00048058 Ry

     iteration #  3     ecut=    80.00 Ry     beta= 0.30
     Davidson diagonalization with overlap
     ethr =  2.29E-06,  avg # of iterations =  1.0

     total cpu time spent up to now is      689.6 secs

     total energy              =    -135.62813225 Ry
     estimated scf accuracy    <       0.00017435 Ry

     iteration #  4     ecut=    80.00 Ry     beta= 0.30
     Davidson diagonalization with overlap
     ethr =  8.30E-07,  avg # of iterations =  2.0

     total cpu time spent up to now is      694.9 secs

     total energy              =    -135.62814897 Ry
     estimated scf accuracy    <       0.00001799 Ry

     iteration #  5     ecut=    80.00 Ry     beta= 0.30
     Davidson diagonalization with overlap
     ethr =  8.57E-08,  avg # of iterations =  2.0

     total cpu time spent up to now is      699.9 secs

     total energy              =    -135.62815201 Ry
     estimated scf accuracy    <       0.00000082 Ry

     iteration #  6     ecut=    80.00 Ry     beta= 0.30
     Davidson diagonalization with overlap
     ethr =  3.90E-09,  avg # of iterations =  2.1

     total cpu time spent up to now is      705.7 secs

     total energy              =    -135.62815206 Ry
     estimated scf accuracy    <       0.00000040 Ry

     iteration #  7     ecut=    80.00 Ry     beta= 0.30
     Davidson diagonalization with overlap
     ethr =  1.92E-09,  avg # of iterations =  1.7

     total cpu time spent up to now is      710.4 secs

     total energy              =    -135.62815212 Ry
     estimated scf accuracy    <       0.00000001 Ry

     iteration #  8     ecut=    80.00 Ry     beta= 0.30
     Davidson diagonalization with overlap
     ethr =  6.64E-11,  avg # of iterations =  2.3

     total cpu time spent up to now is      716.2 secs

     total energy              =    -135.62815213 Ry
     estimated scf accuracy    <          3.6E-09 Ry

     iteration #  9     ecut=    80.00 Ry     beta= 0.30
     Davidson diagonalization with overlap
     ethr =  1.70E-11,  avg # of iterations =  1.8

     total cpu time spent up to now is      721.0 secs

     total energy              =    -135.62815213 Ry
     estimated scf accuracy    <          1.1E-10 Ry

     iteration # 10     ecut=    80.00 Ry     beta= 0.30
     Davidson diagonalization with overlap
     ethr =  5.19E-13,  avg # of iterations =  2.7

     total cpu time spent up to now is      727.2 secs

     End of self-consistent calculation

     Number of k-points >= 100: set verbosity='high' to print the bands.

     the Fermi energy is    16.2277 ev

!    total energy              =    -135.62815213 Ry
     estimated scf accuracy    <          7.7E-11 Ry
     smearing contrib. (-TS)   =      -0.00005469 Ry
     internal energy E=F+TS    =    -135.62809744 Ry

     The total energy is F=E-TS. E is the sum of the following terms:
     one-electron contribution =       4.03797572 Ry
     hartree contribution      =      10.78844642 Ry
     xc contribution           =     -64.92935045 Ry
     ewald contribution        =     -85.52516913 Ry

     convergence has been achieved in  10 iterations

     Forces acting on atoms (cartesian axes, Ry/au):

     atom    1 type  1   force =    -0.00000000    0.00000000    0.00000000
     atom    2 type  2   force =    -0.00843302    0.00843303    0.00843304
     atom    3 type  2   force =     0.00843302   -0.00843303   -0.00843304
     atom    4 type  2   force =    -0.01901338    0.01901338    0.01901337
     atom    5 type  2   force =     0.01901338   -0.01901338   -0.01901337
     atom    6 type  2   force =    -0.01138205    0.01138206   -0.01030442
     atom    7 type  2   force =     0.01138205   -0.01138206    0.01030442
     atom    8 type  2   force =     0.01030441    0.01138206    0.01138206
     atom    9 type  2   force =    -0.01030441   -0.01138206   -0.01138206
     atom   10 type  2   force =    -0.01138205   -0.01030442    0.01138207
     atom   11 type  2   force =     0.01138205    0.01030442   -0.01138207

     Total force =     0.069191     Total SCF correction =     0.000005


     Computing stress (Cartesian axis) and pressure

          total   stress  (Ry/bohr**3)                   (kbar)     P=     1688.64
   0.01147911   0.00012482   0.00012482         1688.64       18.36       18.36
   0.00012482   0.01147911  -0.00012482           18.36     1688.64      -18.36
   0.00012482  -0.00012482   0.01147911           18.36      -18.36     1688.64

     Energy error            =      1.3E-02
     Gradient error          =      1.9E-02
     Cell gradient error     =      4.2E-04


     number of scf cycles    =  10
     number of bfgs steps    =   9

     enthalpy old            =    -133.2333408313 Ry
     enthalpy new            =    -133.2459031338 Ry

     CASE: enthalpy_new < enthalpy_old

     new trust radius        =       0.1034952660 bohr
     new conv_thr            =            1.0E-10 Ry

     new unit-cell volume =    199.36582 a.u.^3 (    29.54297 Ang^3 )
     density =     10.40105 g/cm^3

CELL_PARAMETERS (alat=  9.30000000)
  -0.588125702   0.156951508   0.588125736
  -0.156951493   0.588125744   0.588125761
  -0.588125698   0.588125714   0.156951505

ATOMIC_POSITIONS (crystal)
Lu            0.0000000002        0.0000000001        0.0000000000
H             0.2544422554        0.2544422642        0.2544422449
H             0.7455577444        0.7455577358        0.7455577551
H             0.3434327032        0.3434327033        0.3434327120
H            -0.3434327035       -0.3434327037       -0.3434327123
H             0.3109152197        0.3109152293       -0.1840554403
H            -0.3109152191       -0.3109152290        0.1840554398
H             0.3109152329       -0.1840554441        0.3109152340
H            -0.3109152324        0.1840554436       -0.3109152336
H            -0.1840554359        0.3109152401        0.3109152153
H             0.1840554351       -0.3109152397       -0.3109152149



     Writing output data file ./out/luh10.save/
     NEW-OLD atomic charge density approx. for the potential
     extrapolated charge   20.90673, renormalised to   21.00000

     total cpu time spent up to now is      730.2 secs

     Self-consistent Calculation

     iteration #  1     ecut=    80.00 Ry     beta= 0.30
     Davidson diagonalization with overlap
     c_bands:  1 eigenvalues not converged
     c_bands:  1 eigenvalues not converged
     c_bands:  1 eigenvalues not converged
     c_bands:  1 eigenvalues not converged
     c_bands:  1 eigenvalues not converged
     c_bands:  1 eigenvalues not converged
     ethr =  1.00E-06,  avg # of iterations =  6.8

     total cpu time spent up to now is      741.7 secs

     total energy              =    -135.63211499 Ry
     estimated scf accuracy    <       0.00161569 Ry

     iteration #  2     ecut=    80.00 Ry     beta= 0.30
     Davidson diagonalization with overlap
     ethr =  7.69E-06,  avg # of iterations =  2.2

     total cpu time spent up to now is      747.6 secs

     total energy              =    -135.63236419 Ry
     estimated scf accuracy    <       0.00070554 Ry

     iteration #  3     ecut=    80.00 Ry     beta= 0.30
     Davidson diagonalization with overlap
     ethr =  3.36E-06,  avg # of iterations =  1.0

     total cpu time spent up to now is      752.0 secs

     total energy              =    -135.63232767 Ry
     estimated scf accuracy    <       0.00025034 Ry

     iteration #  4     ecut=    80.00 Ry     beta= 0.30
     Davidson diagonalization with overlap
     ethr =  1.19E-06,  avg # of iterations =  2.1

     total cpu time spent up to now is      757.2 secs

     total energy              =    -135.63234669 Ry
     estimated scf accuracy    <       0.00002830 Ry

     iteration #  5     ecut=    80.00 Ry     beta= 0.30
     Davidson diagonalization with overlap
     ethr =  1.35E-07,  avg # of iterations =  1.9

     total cpu time spent up to now is      762.2 secs

     total energy              =    -135.63235132 Ry
     estimated scf accuracy    <       0.00000132 Ry

     iteration #  6     ecut=    80.00 Ry     beta= 0.30
[...]
     Max         250     102     32                 7859     1994     348
     Sum        2245     913    283                70721    17933    3119



     bravais-lattice index     =            2
     lattice parameter (alat)  =       9.3000  a.u.
     unit-cell volume          =     184.9179 (a.u.)^3
     number of atoms/cell      =           11
     number of atomic types    =            2
     number of electrons       =        21.00
     number of Kohn-Sham states=           15
     kinetic-energy cutoff     =      80.0000  Ry
     charge density cutoff     =     800.0000  Ry
     scf convergence threshold =      1.0E-12
     mixing beta               =       0.3000
     number of iterations used =            8  plain     mixing
     press convergence thresh. =      5.0E-01
     Exchange-correlation= PBE
                           (   1   4   3   4   0   0   0)

     celldm(1)=   9.300000  celldm(2)=   0.000000  celldm(3)=   0.000000
     celldm(4)=   0.000000  celldm(5)=   0.000000  celldm(6)=   0.000000

     crystal axes: (cart. coord. in units of alat)
               a(1) = (  -0.486222   0.000002   0.486222 )  
               a(2) = (  -0.000002   0.486222   0.486222 )  
               a(3) = (  -0.486222   0.486222   0.000002 )  

     reciprocal axes: (cart. coord. in units 2 pi/alat)
               b(1) = ( -1.028340 -1.028345  1.028340 )  
               b(2) = (  1.028345  1.028340  1.028340 )  
               b(3) = ( -1.028340  1.028340 -1.028345 )  


     PseudoPot. # 1 for Lu read from file:
     ./pseudo/Lu.pbe-spdn-rrkjus_psl.1.0.0.UPF
     MD5 check sum: 7c2084fd7f01b7affd2672fab5b9f6d8
     Pseudo is Ultrasoft + core correction, Zval = 11.0
     Generated using &quot;atomic&quot; code by A. Dal Corso  v.6.2.2
     Using radial grid of 1271 points,  6 beta functions with: 
                l(1) =   0
                l(2) =   0
                l(3) =   1
                l(4) =   1
                l(5) =   2
                l(6) =   2
     Q(r) pseudized with 0 coefficients 


     PseudoPot. # 2 for H  read from file:
     ./pseudo/H.pbe-rrkjus_psl.1.0.0.UPF
     MD5 check sum: 9e615844a0e642e0aee8526d0d0f65f7
     Pseudo is Ultrasoft, Zval =  1.0
     Generated using &quot;atomic&quot; code by A. Dal Corso  v.6.3MaX
     Using radial grid of  929 points,  2 beta functions with: 
                l(1) =   0
                l(2) =   0
     Q(r) pseudized with 0 coefficients 


     atomic species   valence    mass     pseudopotential
        Lu            11.00   174.96700     Lu( 1.00)
        H              1.00     1.00800     H ( 1.00)

     No symmetry found



   Cartesian axes

     site n.     atom                  positions (alat units)
         1           Lu  tau(   1) = (   0.0000000   0.0000000  -0.0000000  )
         2           H   tau(   2) = (  -0.2431141   0.2431153   0.2431140  )
         3           H   tau(   3) = (  -0.7293319   0.7293306   0.7293319  )
         4           H   tau(   4) = (  -0.3672466   0.3672464   0.3672471  )
         5           H   tau(   5) = (   0.3672466  -0.3672464  -0.3672471  )
         6           H   tau(   6) = (  -0.1189765   0.1189769   0.3672430  )
         7           H   tau(   7) = (   0.1189765  -0.1189769  -0.3672430  )
         8           H   tau(   8) = (  -0.3672432   0.1189766   0.1189770  )
         9           H   tau(   9) = (   0.3672432  -0.1189766  -0.1189770  )
        10           H   tau(  10) = (  -0.1189763   0.3672435   0.1189762  )
        11           H   tau(  11) = (   0.1189763  -0.3672435  -0.1189762  )

     number of k points=   868  Methfessel-Paxton smearing, width (Ry)=  0.0200

     Number of k-points >= 100: set verbosity='high' to print them.

     Dense  grid:    70721 G-vectors     FFT dimensions: (  60,  60,  60)

     Smooth grid:    17933 G-vectors     FFT dimensions: (  40,  40,  40)

     Estimated max dynamical RAM per process >      89.62 MB

     Estimated total dynamical RAM >     806.61 MB

     Initial potential from superposition of free atoms

     starting charge   20.98360, renormalised to   21.00000
     Starting wfcs are   23 randomized atomic wfcs

     total cpu time spent up to now is     2985.3 secs

     Self-consistent Calculation

     iteration #  1     ecut=    80.00 Ry     beta= 0.30
     Davidson diagonalization with overlap
     c_bands:  1 eigenvalues not converged
     c_bands:  1 eigenvalues not converged
     c_bands:  1 eigenvalues not converged
     c_bands:  1 eigenvalues not converged
     c_bands:  1 eigenvalues not converged
     c_bands:  1 eigenvalues not converged
     c_bands:  1 eigenvalues not converged
     c_bands:  1 eigenvalues not converged
     c_bands:  1 eigenvalues not converged
     c_bands:  1 eigenvalues not converged
     c_bands:  1 eigenvalues not converged
     c_bands:  1 eigenvalues not converged
     c_bands:  1 eigenvalues not converged
     c_bands:  1 eigenvalues not converged
     c_bands:  1 eigenvalues not converged
     c_bands:  1 eigenvalues not converged
     c_bands:  1 eigenvalues not converged
     c_bands:  1 eigenvalues not converged
     c_bands:  1 eigenvalues not converged
     c_bands:  1 eigenvalues not converged
     c_bands:  1 eigenvalues not converged
     c_bands:  1 eigenvalues not converged
     c_bands:  1 eigenvalues not converged
     c_bands:  1 eigenvalues not converged
     c_bands:  1 eigenvalues not converged
     c_bands:  1 eigenvalues not converged
     c_bands:  1 eigenvalues not converged
     c_bands:  1 eigenvalues not converged
     c_bands:  1 eigenvalues not converged
     c_bands:  1 eigenvalues not converged
     c_bands:  1 eigenvalues not converged
     c_bands:  1 eigenvalues not converged
     c_bands:  1 eigenvalues not converged
     c_bands:  1 eigenvalues not converged
     c_bands:  1 eigenvalues not converged
     c_bands:  1 eigenvalues not converged
     c_bands:  1 eigenvalues not converged
     c_bands:  1 eigenvalues not converged
     c_bands:  1 eigenvalues not converged
     c_bands:  1 eigenvalues not converged
     c_bands:  1 eigenvalues not converged
     c_bands:  1 eigenvalues not converged
     c_bands:  1 eigenvalues not converged
     c_bands:  1 eigenvalues not converged
     c_bands:  1 eigenvalues not converged
     c_bands:  1 eigenvalues not converged
     c_bands:  1 eigenvalues not converged
     c_bands:  1 eigenvalues not converged
     c_bands:  1 eigenvalues not converged
     c_bands:  1 eigenvalues not converged
     c_bands:  1 eigenvalues not converged
     c_bands:  1 eigenvalues not converged
     c_bands:  1 eigenvalues not converged
     c_bands:  1 eigenvalues not converged
     c_bands:  1 eigenvalues not converged
     c_bands:  1 eigenvalues not converged
     c_bands:  1 eigenvalues not converged
     c_bands:  1 eigenvalues not converged
     c_bands:  1 eigenvalues not converged
     c_bands:  1 eigenvalues not converged
     c_bands:  1 eigenvalues not converged
     c_bands:  1 eigenvalues not converged
     c_bands:  1 eigenvalues not converged
     c_bands:  1 eigenvalues not converged
     c_bands:  1 eigenvalues not converged
     c_bands:  1 eigenvalues not converged
     c_bands:  1 eigenvalues not converged
     c_bands:  1 eigenvalues not converged
     c_bands:  1 eigenvalues not converged
     c_bands:  1 eigenvalues not converged
     c_bands:  1 eigenvalues not converged
     c_bands:  1 eigenvalues not converged
     c_bands:  1 eigenvalues not converged
     c_bands:  1 eigenvalues not converged
     c_bands:  1 eigenvalues not converged
     c_bands:  1 eigenvalues not converged
     c_bands:  1 eigenvalues not converged
     c_bands:  1 eigenvalues not converged
     c_bands:  1 eigenvalues not converged
     c_bands:  1 eigenvalues not converged
     c_bands:  1 eigenvalues not converged
     c_bands:  1 eigenvalues not converged
     c_bands:  1 eigenvalues not converged
     c_bands:  1 eigenvalues not converged
     c_bands:  1 eigenvalues not converged
     c_bands:  1 eigenvalues not converged
     c_bands:  1 eigenvalues not converged
     c_bands:  1 eigenvalues not converged
     c_bands:  1 eigenvalues not converged
     c_bands:  1 eigenvalues not converged
     c_bands:  1 eigenvalues not converged
     c_bands:  1 eigenvalues not converged
     c_bands:  1 eigenvalues not converged
     c_bands:  1 eigenvalues not converged
     c_bands:  1 eigenvalues not converged
     c_bands:  1 eigenvalues not converged
     c_bands:  1 eigenvalues not converged
     c_bands:  1 eigenvalues not converged
     c_bands:  1 eigenvalues not converged
     c_bands:  1 eigenvalues not converged
     c_bands:  1 eigenvalues not converged
     c_bands:  1 eigenvalues not converged
     c_bands:  1 eigenvalues not converged
     c_bands:  1 eigenvalues not converged
     c_bands:  1 eigenvalues not converged
     c_bands:  1 eigenvalues not converged
     c_bands:  1 eigenvalues not converged
     c_bands:  1 eigenvalues not converged
     c_bands:  1 eigenvalues not converged
     c_bands:  1 eigenvalues not converged
     c_bands:  1 eigenvalues not converged
     c_bands:  1 eigenvalues not converged
     c_bands:  1 eigenvalues not converged
     c_bands:  1 eigenvalues not converged
     c_bands:  1 eigenvalues not converged
     c_bands:  1 eigenvalues not converged
     c_bands:  1 eigenvalues not converged
     c_bands:  1 eigenvalues not converged
     c_bands:  1 eigenvalues not converged
     c_bands:  1 eigenvalues not converged
     c_bands:  1 eigenvalues not converged
     c_bands:  1 eigenvalues not converged
     c_bands:  1 eigenvalues not converged
     c_bands:  1 eigenvalues not converged
     c_bands:  1 eigenvalues not converged
     c_bands:  1 eigenvalues not converged
     c_bands:  1 eigenvalues not converged
     c_bands:  1 eigenvalues not converged
     c_bands:  1 eigenvalues not converged
     c_bands:  1 eigenvalues not converged
     c_bands:  1 eigenvalues not converged
     c_bands:  1 eigenvalues not converged
     c_bands:  1 eigenvalues not converged
     c_bands:  1 eigenvalues not converged
     c_bands:  1 eigenvalues not converged
     c_bands:  1 eigenvalues not converged
     c_bands:  1 eigenvalues not converged
     c_bands:  1 eigenvalues not converged
     c_bands:  1 eigenvalues not converged
     c_bands:  1 eigenvalues not converged
     c_bands:  1 eigenvalues not converged
     c_bands:  1 eigenvalues not converged
     c_bands:  1 eigenvalues not converged
     c_bands:  1 eigenvalues not converged
     c_bands:  1 eigenvalues not converged
     c_bands:  1 eigenvalues not converged
     c_bands:  1 eigenvalues not converged
     c_bands:  1 eigenvalues not converged
     c_bands:  1 eigenvalues not converged
     c_bands:  1 eigenvalues not converged
     c_bands:  1 eigenvalues not converged
     c_bands:  1 eigenvalues not converged
     c_bands:  1 eigenvalues not converged
     c_bands:  1 eigenvalues not converged
     c_bands:  1 eigenvalues not converged
     c_bands:  1 eigenvalues not converged
     c_bands:  1 eigenvalues not converged
     c_bands:  1 eigenvalues not converged
     c_bands:  1 eigenvalues not converged
     c_bands:  1 eigenvalues not converged
     c_bands:  1 eigenvalues not converged
     c_bands:  1 eigenvalues not converged
     c_bands:  1 eigenvalues not converged
     c_bands:  1 eigenvalues not converged
     c_bands:  1 eigenvalues not converged
     c_bands:  1 eigenvalues not converged
     c_bands:  1 eigenvalues not converged
     c_bands:  1 eigenvalues not converged
     ethr =  1.00E-06,  avg # of iterations = 14.7

     total cpu time spent up to now is     3002.2 secs

     total energy              =    -135.68067218 Ry
     estimated scf accuracy    <       0.25311910 Ry

     iteration #  2     ecut=    80.00 Ry     beta= 0.30
     Davidson diagonalization with overlap
     ethr =  1.21E-03,  avg # of iterations =  1.0

     total cpu time spent up to now is     3006.7 secs

     total energy              =    -135.65317955 Ry
     estimated scf accuracy    <       0.07433654 Ry

     iteration #  3     ecut=    80.00 Ry     beta= 0.30
     Davidson diagonalization with overlap
     ethr =  3.54E-04,  avg # of iterations =  2.3

     total cpu time spent up to now is     3012.7 secs

     total energy              =    -135.66588477 Ry
     estimated scf accuracy    <       0.00329604 Ry

     iteration #  4     ecut=    80.00 Ry     beta= 0.30
     Davidson diagonalization with overlap
     ethr =  1.57E-05,  avg # of iterations =  3.1

     total cpu time spent up to now is     3019.4 secs

     total energy              =    -135.66614401 Ry
     estimated scf accuracy    <       0.00141074 Ry

     iteration #  5     ecut=    80.00 Ry     beta= 0.30
     Davidson diagonalization with overlap
     ethr =  6.72E-06,  avg # of iterations =  3.0

     total cpu time spent up to now is     3025.3 secs

     total energy              =    -135.66637736 Ry
     estimated scf accuracy    <       0.00001850 Ry

     iteration #  6     ecut=    80.00 Ry     beta= 0.30
     Davidson diagonalization with overlap
     ethr =  8.81E-08,  avg # of iterations =  2.3

     total cpu time spent up to now is     3030.9 secs

     total energy              =    -135.66638157 Ry
     estimated scf accuracy    <       0.00000072 Ry

     iteration #  7     ecut=    80.00 Ry     beta= 0.30
     Davidson diagonalization with overlap
     ethr =  3.43E-09,  avg # of iterations =  2.2

     total cpu time spent up to now is     3036.9 secs

     total energy              =    -135.66638142 Ry
     estimated scf accuracy    <       0.00000090 Ry

     iteration #  8     ecut=    80.00 Ry     beta= 0.30
     Davidson diagonalization with overlap
     ethr =  3.43E-09,  avg # of iterations =  2.0

     total cpu time spent up to now is     3042.9 secs

     total energy              =    -135.66638166 Ry
     estimated scf accuracy    <       0.00000002 Ry

     iteration #  9     ecut=    80.00 Ry     beta= 0.30
     Davidson diagonalization with overlap
     ethr =  8.56E-11,  avg # of iterations =  2.1

     total cpu time spent up to now is     3048.2 secs

     total energy              =    -135.66638165 Ry
     estimated scf accuracy    <       0.00000002 Ry

     iteration # 10     ecut=    80.00 Ry     beta= 0.30
     Davidson diagonalization with overlap
     ethr =  8.56E-11,  avg # of iterations =  2.0

     total cpu time spent up to now is     3054.0 secs

     total energy              =    -135.66638166 Ry
     estimated scf accuracy    <          2.8E-11 Ry

     iteration # 11     ecut=    80.00 Ry     beta= 0.30
     Davidson diagonalization with overlap
     ethr =  1.32E-13,  avg # of iterations =  4.2

     total cpu time spent up to now is     3061.2 secs

     total energy              =    -135.66638166 Ry
     estimated scf accuracy    <          1.4E-10 Ry

     iteration # 12     ecut=    80.00 Ry     beta= 0.30
     Davidson diagonalization with overlap
     ethr =  1.32E-13,  avg # of iterations =  2.0

     total cpu time spent up to now is     3066.3 secs

     total energy              =    -135.66638166 Ry
     estimated scf accuracy    <          5.4E-11 Ry

     iteration # 13     ecut=    80.00 Ry     beta= 0.30
     Davidson diagonalization with overlap
     ethr =  1.32E-13,  avg # of iterations =  2.1

     total cpu time spent up to now is     3072.2 secs

     End of self-consistent calculation

     Number of k-points >= 100: set verbosity='high' to print the bands.

     the Fermi energy is    18.3010 ev

!    total energy              =    -135.66638166 Ry
     estimated scf accuracy    <          9.3E-13 Ry
     smearing contrib. (-TS)   =       0.00026288 Ry
     internal energy E=F+TS    =    -135.66664454 Ry

     The total energy is F=E-TS. E is the sum of the following terms:
     one-electron contribution =      11.30134788 Ry
     hartree contribution      =       8.13286571 Ry
     xc contribution           =     -65.03888844 Ry
     ewald contribution        =     -90.06196970 Ry

     convergence has been achieved in  13 iterations

     Forces acting on atoms (cartesian axes, Ry/au):

     atom    1 type  1   force =    -0.00000000    0.00000000    0.00000000
     atom    2 type  2   force =     0.00000034   -0.00000083   -0.00000029
     atom    3 type  2   force =    -0.00000034    0.00000083    0.00000029
     atom    4 type  2   force =     0.00000661   -0.00000662   -0.00000699
     atom    5 type  2   force =    -0.00000661    0.00000662    0.00000699
     atom    6 type  2   force =    -0.00000641    0.00000579   -0.00000534
     atom    7 type  2   force =     0.00000641   -0.00000579    0.00000534
     atom    8 type  2   force =     0.00000560    0.00000593    0.00000600
     atom    9 type  2   force =    -0.00000560   -0.00000593   -0.00000600
     atom   10 type  2   force =    -0.00000617   -0.00000582    0.00000646
     atom   11 type  2   force =     0.00000617    0.00000582   -0.00000646

     Total force =     0.000030     Total SCF correction =     0.000000


     Computing stress (Cartesian axis) and pressure

          total   stress  (Ry/bohr**3)                   (kbar)     P=     1750.13
   0.01189713   0.00000003   0.00000003         1750.13        0.00        0.00
   0.00000003   0.01189714  -0.00000003            0.00     1750.13       -0.00
   0.00000003  -0.00000003   0.01189714            0.00       -0.00     1750.13


     Writing output data file ./out/luh10.save/

     init_run     :      6.15s CPU      6.45s WALL (       2 calls)
     electrons    :   2790.01s CPU   2919.87s WALL (      49 calls)
     update_pot   :     19.91s CPU     19.95s WALL (      47 calls)
     forces       :     44.58s CPU     45.90s WALL (      49 calls)
     stress       :     78.80s CPU     79.41s WALL (      49 calls)

     Called by init_run:
     wfcinit      :      5.34s CPU      5.62s WALL (       2 calls)
     potinit      :      0.24s CPU      0.24s WALL (       2 calls)
     hinit0       :      0.52s CPU      0.52s WALL (       2 calls)

     Called by electrons:
     c_bands      :   2434.06s CPU   2542.59s WALL (     485 calls)
     sum_band     :    344.65s CPU    365.12s WALL (     485 calls)
     v_of_rho     :      2.88s CPU      3.07s WALL (     530 calls)
     newd         :      8.81s CPU      8.94s WALL (     530 calls)
     mix_rho      :      0.31s CPU      0.34s WALL (     485 calls)

     Called by c_bands:
     init_us_2    :     39.20s CPU     40.97s WALL (  928760 calls)
     cegterg      :   2359.36s CPU   2465.35s WALL (  420980 calls)

     Called by *egterg:
     cdiaghg      :    162.30s CPU    168.47s WALL ( 1415796 calls)
     h_psi        :   1571.27s CPU   1648.15s WALL ( 1461800 calls)
     s_psi        :    135.98s CPU    142.92s WALL ( 1461800 calls)
     g_psi        :     12.93s CPU     13.31s WALL ( 1039084 calls)

     Called by h_psi:
     h_psi:calbec :    165.71s CPU    176.05s WALL ( 1461800 calls)
     vloc_psi     :   1261.94s CPU   1320.63s WALL ( 1461800 calls)
     add_vuspsi   :    135.63s CPU    143.25s WALL ( 1461800 calls)

     General routines
     calbec       :    257.12s CPU    272.57s WALL ( 2095440 calls)
     fft          :      2.33s CPU      2.55s WALL (    8068 calls)
     ffts         :      0.08s CPU      0.09s WALL (    1015 calls)
     fftw         :   1316.88s CPU   1381.10s WALL (39191856 calls)
     interpolate  :      0.16s CPU      0.19s WALL (     530 calls)

     Parallel routines
     fft_scatt_xy :    157.76s CPU    165.32s WALL (39200939 calls)
     fft_scatt_yz :    411.81s CPU    434.29s WALL (39200939 calls)

     PWSCF        :  49m 2.95s CPU  51m15.33s WALL


   This run was terminated on:  19:26:54  31May2026            

=------------------------------------------------------------------------------=
   JOB DONE.
=------------------------------------------------------------------------------=
