
     Program PHONON v.6.7MaX starts on 31May2026 at 16:35:15 

     This program is part of the open-source Quantum ESPRESSO suite
     for quantum simulation of materials; please cite
         "P. Giannozzi et al., J. Phys.:Condens. Matter 21 395502 (2009);
         "P. Giannozzi et al., J. Phys.:Condens. Matter 29 465901 (2017);
          URL http://www.quantum-espresso.org", 
     in publications or presentations arising from this work. More details at
     http://www.quantum-espresso.org/quote

     Parallel version (MPI), running on     6 processors

     MPI processes distributed on     1 nodes
     R & G space division:  proc/nbgrp/npool/nimage =       6
     Reading input from ph.in

     Reading xml data from directory:

     ./out/baauh3.save/
     file Ba.pbe-spn-rrkjus_psl.1.0.0.UPF: wavefunction(s)  5S 6S renormalized

     IMPORTANT: XC functional enforced from input :
     Exchange-correlation= PBE
                           (   1   4   3   4   0   0   0)
     Any further DFT definition will be discarded
     Please, verify this is what you really want


     Parallelization info
     --------------------
     sticks:   dense  smooth     PW     G-vecs:    dense   smooth      PW
     Min         488     244     70                19862     7018    1102
     Max         489     245     71                19863     7021    1107
     Sum        2933    1465    421               119177    42115    6619

     Reading collected, re-writing distributed wavefunctions


     Dynamical matrices for ( 4, 4, 4)  uniform grid of q-points
     (  18 q-points):
       N         xq(1)         xq(2)         xq(3) 
       1   0.000000000   0.000000000   0.000000000
       2   0.000000003   0.000000001   0.250000000
       3  -0.000000006  -0.000000002  -0.500000000
       4  -0.000000008   0.249999377   0.000000001
       5  -0.000000005   0.249999377   0.250000001
       6  -0.000000015   0.249999375  -0.499999999
       7   0.000000017  -0.499998753  -0.000000002
       8   0.000000020  -0.499998753   0.249999998
       9   0.000000011  -0.499998755  -0.500000002
      10   0.250000003  -0.000000008   0.250000003
      11   0.249999994  -0.000000010  -0.499999997
      12   0.249999995   0.249999369   0.250000004
      13   0.249999985   0.249999367  -0.499999996
      14   0.250000020  -0.499998761   0.250000002
      15   0.250000011  -0.499998763  -0.499999998
      16  -0.500000006   0.000000015  -0.500000006
      17  -0.500000015   0.249999392  -0.500000005
      18  -0.499999989  -0.499998738  -0.500000008

     Saving dvscf to file. Distribute only q points, not irreducible represetations.

     Calculation of q =    0.0000000   0.0000000   0.0000000

     BaAuH3 phonon + electron-phonon 4x4x4 q (RTSC A10 · SrAuH3 A-site Ba-varia

     bravais-lattice index     =            0
     lattice parameter (alat)  =       7.5797  a.u.
     unit-cell volume          =     435.4739 (a.u.)^3
     number of atoms/cell      =            5
     number of atomic types    =            3
     kinetic-energy cut-off    =      80.0000  Ry
     charge density cut-off    =     640.0000  Ry
     convergence threshold     =      1.0E-14
     beta                      =       0.7000
     number of iterations used =            4
     Exchange-correlation= PBE
                           (   1   4   3   4   0   0   0)


     celldm(1)=    7.57973  celldm(2)=    0.00000  celldm(3)=    0.00000
     celldm(4)=    0.00000  celldm(5)=    0.00000  celldm(6)=    0.00000

     crystal axes: (cart. coord. in units of alat)
               a(1) = (  1.0000  0.0000 -0.0000 )  
               a(2) = (  0.0000  1.0000 -0.0000 )  
               a(3) = ( -0.0000 -0.0000  1.0000 )  

     reciprocal axes: (cart. coord. in units 2 pi/alat)
               b(1) = (  1.0000 -0.0000  0.0000 )  
               b(2) = ( -0.0000  1.0000  0.0000 )  
               b(3) = (  0.0000  0.0000  1.0000 )  


     Atoms inside the unit cell: 

     Cartesian axes

     site n.  atom      mass           positions (alat units)
        1     Ba 137.3270   tau(    1) = (    0.50000    0.50000    0.50000  )
        2     Au 196.9670   tau(    2) = (   -0.00000   -0.00000    0.00000  )
        3     H    1.0080   tau(    3) = (    0.50000   -0.00000    0.00000  )
        4     H    1.0080   tau(    4) = (   -0.00000    0.50000    0.00000  )
        5     H    1.0080   tau(    5) = (   -0.00000   -0.00000    0.50000  )

     Computing dynamical matrix for 
                    q = (   0.0000000   0.0000000   0.0000000 )

     17 Sym.Ops. (with q -> -q+G )


     G cutoff =  931.3815  (  19862 G-vectors)     FFT grid: ( 64, 64, 64)
     G cutoff =  465.6908  (   7020 G-vectors)  smooth grid: ( 45, 45, 45)

     number of k points=   405  Methfessel-Paxton smearing, width (Ry)=  0.0200

     PseudoPot. # 1 for Ba read from file:
     ./pseudo/Ba.pbe-spn-rrkjus_psl.1.0.0.UPF
     MD5 check sum: 03210ee0890048675a516292961e2951
     Pseudo is Ultrasoft + core correction, Zval = 10.0
     Generated using &quot;atomic&quot; code by A. Dal Corso  v.6.2.2
     Using radial grid of 1251 points,  7 beta functions with: 
                l(1) =   0
                l(2) =   0
                l(3) =   0
                l(4) =   1
                l(5) =   1
                l(6) =   2
                l(7) =   2
     Q(r) pseudized with 0 coefficients 


     PseudoPot. # 2 for Au read from file:
     ./pseudo/Au.pbe-n-rrkjus_psl.1.0.0.UPF
     MD5 check sum: 36a5134bc4f0d73a839546df15754897
     Pseudo is Ultrasoft + core correction, Zval = 11.0
     Generated using &quot;atomic&quot; code by A. Dal Corso  v.6.3
     Using radial grid of 1279 points,  6 beta functions with: 
                l(1) =   0
                l(2) =   0
                l(3) =   1
                l(4) =   1
                l(5) =   2
                l(6) =   2
     Q(r) pseudized with 0 coefficients 


     PseudoPot. # 3 for H  read from file:
     ./pseudo/H.pbe-rrkjus_psl.1.0.0.UPF
     MD5 check sum: 9e615844a0e642e0aee8526d0d0f65f7
     Pseudo is Ultrasoft, Zval =  1.0
     Generated using &quot;atomic&quot; code by A. Dal Corso  v.6.3MaX
     Using radial grid of  929 points,  2 beta functions with: 
                l(1) =   0
                l(2) =   0
     Q(r) pseudized with 0 coefficients 



     Atomic displacements:
     There are   10 irreducible representations

     Representation     1      2 modes -  To be done

     Representation     2      1 modes -  To be done

     Representation     3      2 modes -  To be done

     Representation     4      1 modes -  To be done

     Representation     5      1 modes -  To be done

     Representation     6      2 modes -  To be done

     Representation     7      2 modes -  To be done

     Representation     8      1 modes -  To be done

     Representation     9      1 modes -  To be done

     Representation    10      2 modes -  To be done



     Alpha used in Ewald sum =   2.8000
     PHONON       :     38.44s CPU     40.94s WALL



     Representation #   1 modes #   1   2

     Self-consistent Calculation

     Pert. #  1: Fermi energy shift (Ry) =     2.6470E-23    -7.5232E-37
     Pert. #  2: Fermi energy shift (Ry) =     5.2497E-24    -4.4669E-37

      iter #   1 total cpu time :   101.7 secs   av.it.:   4.4
      thresh= 1.000E-02 alpha_mix =  0.700 |ddv_scf|^2 =  4.063E-09

     Pert. #  1: Fermi energy shift (Ry) =    -1.3235E-23    -3.6734E-40
     Pert. #  2: Fermi energy shift (Ry) =    -1.5665E-23    -7.3468E-40

      iter #   2 total cpu time :   258.8 secs   av.it.:  17.2
      thresh= 6.374E-06 alpha_mix =  0.700 |ddv_scf|^2 =  8.856E-10

     Pert. #  1: Fermi energy shift (Ry) =    -1.3235E-23     3.6734E-40
     Pert. #  2: Fermi energy shift (Ry) =     5.0746E-25     4.5918E-40

      iter #   3 total cpu time :   426.7 secs   av.it.:  17.5
      thresh= 2.976E-06 alpha_mix =  0.700 |ddv_scf|^2 =  1.671E-09

     Pert. #  1: Fermi energy shift (Ry) =     0.0000E+00    -9.1835E-41
     Pert. #  2: Fermi energy shift (Ry) =     4.8471E-24     0.0000E+00

      iter #   4 total cpu time :   573.2 secs   av.it.:  15.6
      thresh= 4.088E-06 alpha_mix =  0.700 |ddv_scf|^2 =  8.200E-10

     Pert. #  1: Fermi energy shift (Ry) =     0.0000E+00     1.8367E-40
     Pert. #  2: Fermi energy shift (Ry) =     5.5642E-24     8.0356E-41

      iter #   5 total cpu time :   716.9 secs   av.it.:  15.4
      thresh= 2.864E-06 alpha_mix =  0.700 |ddv_scf|^2 =  7.765E-13

     Pert. #  1: Fermi energy shift (Ry) =    -2.6470E-23     0.0000E+00
     Pert. #  2: Fermi energy shift (Ry) =    -1.5121E-23     1.1479E-41

      iter #   6 total cpu time :   864.3 secs   av.it.:  16.0
      thresh= 8.812E-08 alpha_mix =  0.700 |ddv_scf|^2 =  1.299E-15

     End of self-consistent calculation

     Convergence has been achieved 


     Representation #   2 mode #   3

     Self-consistent Calculation

     Pert. #  1: Fermi energy shift (Ry) =     2.6470E-23    -3.0093E-36

      iter #   1 total cpu time :   906.7 secs   av.it.:   4.4
      thresh= 1.000E-02 alpha_mix =  0.700 |ddv_scf|^2 =  2.588E-08

     Pert. #  1: Fermi energy shift (Ry) =     5.2940E-23     0.0000E+00

      iter #   2 total cpu time :   978.2 secs   av.it.:  15.4
      thresh= 1.609E-05 alpha_mix =  0.700 |ddv_scf|^2 =  6.719E-09

     Pert. #  1: Fermi energy shift (Ry) =    -2.6470E-23    -7.3468E-40

      iter #   3 total cpu time :  1049.7 secs   av.it.:  15.7
      thresh= 8.197E-06 alpha_mix =  0.700 |ddv_scf|^2 =  5.524E-09

     Pert. #  1: Fermi energy shift (Ry) =    -5.2940E-23    -9.1835E-41

      iter #   4 total cpu time :  1115.1 secs   av.it.:  14.0
      thresh= 7.432E-06 alpha_mix =  0.700 |ddv_scf|^2 =  2.582E-09

     Pert. #  1: Fermi energy shift (Ry) =     5.2940E-23    -1.4694E-39

      iter #   5 total cpu time :  1194.3 secs   av.it.:  13.6
      thresh= 5.081E-06 alpha_mix =  0.700 |ddv_scf|^2 =  3.113E-11

     Pert. #  1: Fermi energy shift (Ry) =     5.2940E-23     4.5918E-41

      iter #   6 total cpu time :  1260.8 secs   av.it.:  14.2
      thresh= 5.579E-07 alpha_mix =  0.700 |ddv_scf|^2 =  3.030E-13

     Pert. #  1: Fermi energy shift (Ry) =     0.0000E+00     1.4349E-42

      iter #   7 total cpu time :  1325.7 secs   av.it.:  14.0
      thresh= 5.505E-08 alpha_mix =  0.700 |ddv_scf|^2 =  3.070E-15

     End of self-consistent calculation

     Convergence has been achieved 


     Representation #   3 modes #   4   5

     Self-consistent Calculation

     Pert. #  1: Fermi energy shift (Ry) =     5.2940E-23     0.0000E+00
     Pert. #  2: Fermi energy shift (Ry) =    -1.3961E-24    -1.0697E-36

      iter #   1 total cpu time :  1428.1 secs   av.it.:   8.7
      thresh= 1.000E-02 alpha_mix =  0.700 |ddv_scf|^2 =  5.859E-07

     Pert. #  1: Fermi energy shift (Ry) =     0.0000E+00     0.0000E+00
     Pert. #  2: Fermi energy shift (Ry) =    -2.0032E-23     3.6734E-40

      iter #   2 total cpu time :  1587.1 secs   av.it.:  17.1
      thresh= 7.655E-05 alpha_mix =  0.700 |ddv_scf|^2 =  1.681E-07

     Pert. #  1: Fermi energy shift (Ry) =     4.3013E-23     7.3468E-40
     Pert. #  2: Fermi energy shift (Ry) =     1.7707E-23     5.5101E-40

      iter #   3 total cpu time :  1747.0 secs   av.it.:  17.1
      thresh= 4.100E-05 alpha_mix =  0.700 |ddv_scf|^2 =  2.843E-08

     Pert. #  1: Fermi energy shift (Ry) =     0.0000E+00     0.0000E+00
     Pert. #  2: Fermi energy shift (Ry) =     1.2500E-23     4.5918E-41

      iter #   4 total cpu time :  1909.2 secs   av.it.:  16.2
      thresh= 1.686E-05 alpha_mix =  0.700 |ddv_scf|^2 =  5.449E-08

     Pert. #  1: Fermi energy shift (Ry) =     4.7976E-23     3.6734E-40
     Pert. #  2: Fermi energy shift (Ry) =    -1.0385E-23     8.2652E-40

      iter #   5 total cpu time :  2048.0 secs   av.it.:  14.9
      thresh= 2.334E-05 alpha_mix =  0.700 |ddv_scf|^2 =  1.530E-10

     Pert. #  1: Fermi energy shift (Ry) =     1.8198E-23    -9.1835E-41
     Pert. #  2: Fermi energy shift (Ry) =     2.0012E-23     6.0267E-41

      iter #   6 total cpu time :  2204.3 secs   av.it.:  16.2
      thresh= 1.237E-06 alpha_mix =  0.700 |ddv_scf|^2 =  5.219E-13

     Pert. #  1: Fermi energy shift (Ry) =     1.6544E-23     2.2959E-41
     Pert. #  2: Fermi energy shift (Ry) =    -3.2827E-23     1.1479E-41

      iter #   7 total cpu time :  2356.2 secs   av.it.:  16.4
      thresh= 7.224E-08 alpha_mix =  0.700 |ddv_scf|^2 =  7.432E-14

     Pert. #  1: Fermi energy shift (Ry) =     4.3013E-23     0.0000E+00
     Pert. #  2: Fermi energy shift (Ry) =    -6.3707E-24    -1.4349E-42

      iter #   8 total cpu time :  2503.4 secs   av.it.:  16.2
      thresh= 2.726E-08 alpha_mix =  0.700 |ddv_scf|^2 =  7.414E-16

     End of self-consistent calculation

     Convergence has been achieved 


     Representation #   4 mode #   6

     Self-consistent Calculation

     Pert. #  1: Fermi energy shift (Ry) =    -5.2940E-23     1.1755E-38

      iter #   1 total cpu time :  2556.6 secs   av.it.:   4.8
      thresh= 1.000E-02 alpha_mix =  0.700 |ddv_scf|^2 =  2.878E-08

     Pert. #  1: Fermi energy shift (Ry) =     2.6470E-23     2.9387E-39

      iter #   2 total cpu time :  2634.2 secs   av.it.:  15.5
      thresh= 1.696E-05 alpha_mix =  0.700 |ddv_scf|^2 =  7.229E-09

     Pert. #  1: Fermi energy shift (Ry) =     0.0000E+00    -1.4694E-39

      iter #   3 total cpu time :  2707.6 secs   av.it.:  15.8
      thresh= 8.502E-06 alpha_mix =  0.700 |ddv_scf|^2 =  1.222E-08

     Pert. #  1: Fermi energy shift (Ry) =     2.6470E-23     1.8367E-40

      iter #   4 total cpu time :  2771.8 secs   av.it.:  13.5
      thresh= 1.105E-05 alpha_mix =  0.700 |ddv_scf|^2 =  1.585E-09

     Pert. #  1: Fermi energy shift (Ry) =     1.0588E-22     7.3468E-40

      iter #   5 total cpu time :  2840.0 secs   av.it.:  14.1
      thresh= 3.982E-06 alpha_mix =  0.700 |ddv_scf|^2 =  7.511E-12

     Pert. #  1: Fermi energy shift (Ry) =    -7.9409E-23     1.3775E-40

      iter #   6 total cpu time :  2905.6 secs   av.it.:  14.1
      thresh= 2.741E-07 alpha_mix =  0.700 |ddv_scf|^2 =  6.883E-15

     End of self-consistent calculation

     Convergence has been achieved 


     Representation #   5 mode #   7

     Self-consistent Calculation

     Pert. #  1: Fermi energy shift (Ry) =    -8.2718E-25    -1.8808E-37

      iter #   1 total cpu time :  2940.5 secs   av.it.:   4.1
      thresh= 1.000E-02 alpha_mix =  0.700 |ddv_scf|^2 =  4.006E-09

     Pert. #  1: Fermi energy shift (Ry) =    -1.6544E-24     3.6734E-40

      iter #   2 total cpu time :  3009.5 secs   av.it.:  14.8
      thresh= 6.329E-06 alpha_mix =  0.700 |ddv_scf|^2 =  9.849E-11

     Pert. #  1: Fermi energy shift (Ry) =     0.0000E+00    -9.1835E-41

      iter #   3 total cpu time :  3081.4 secs   av.it.:  14.9
      thresh= 9.924E-07 alpha_mix =  0.700 |ddv_scf|^2 =  1.416E-12

     Pert. #  1: Fermi energy shift (Ry) =     4.1359E-25     2.8699E-42

      iter #   4 total cpu time :  3146.7 secs   av.it.:  14.0
      thresh= 1.190E-07 alpha_mix =  0.700 |ddv_scf|^2 =  5.655E-15

     End of self-consistent calculation

     Convergence has been achieved 


     Representation #   6 modes #   8   9

     Self-consistent Calculation

     Pert. #  1: Fermi energy shift (Ry) =     0.0000E+00    -5.6424E-37
     Pert. #  2: Fermi energy shift (Ry) =    -1.5079E-23    -1.3224E-37

      iter #   1 total cpu time :  3208.9 secs   av.it.:   4.4
      thresh= 1.000E-02 alpha_mix =  0.700 |ddv_scf|^2 =  9.911E-10

     Pert. #  1: Fermi energy shift (Ry) =     4.9631E-24     0.0000E+00
     Pert. #  2: Fermi energy shift (Ry) =     1.7087E-24    -3.7308E-41

      iter #   2 total cpu time :  3364.3 secs   av.it.:  17.0
      thresh= 3.148E-06 alpha_mix =  0.700 |ddv_scf|^2 =  3.348E-11

     Pert. #  1: Fermi energy shift (Ry) =     8.2718E-24     4.5918E-41
     Pert. #  2: Fermi energy shift (Ry) =     2.8045E-23     5.7397E-41

      iter #   3 total cpu time :  3526.2 secs   av.it.:  18.0
      thresh= 5.786E-07 alpha_mix =  0.700 |ddv_scf|^2 =  3.321E-10

     Pert. #  1: Fermi energy shift (Ry) =     3.3087E-24     0.0000E+00
     Pert. #  2: Fermi energy shift (Ry) =    -1.0191E-23     1.0618E-40

      iter #   4 total cpu time :  3671.0 secs   av.it.:  15.7
      thresh= 1.822E-06 alpha_mix =  0.700 |ddv_scf|^2 =  2.309E-10

     Pert. #  1: Fermi energy shift (Ry) =    -8.2718E-24     0.0000E+00
     Pert. #  2: Fermi energy shift (Ry) =    -1.0709E-23    -1.6071E-40

      iter #   5 total cpu time :  3810.5 secs   av.it.:  15.2
      thresh= 1.520E-06 alpha_mix =  0.700 |ddv_scf|^2 =  2.211E-13

     Pert. #  1: Fermi energy shift (Ry) =     3.3087E-24    -1.1479E-41
     Pert. #  2: Fermi energy shift (Ry) =     2.6093E-24     5.7397E-42

      iter #   6 total cpu time :  3966.9 secs   av.it.:  16.1
      thresh= 4.702E-08 alpha_mix =  0.700 |ddv_scf|^2 =  1.579E-13

     Pert. #  1: Fermi energy shift (Ry) =     1.6544E-23     0.0000E+00
     Pert. #  2: Fermi energy shift (Ry) =     1.5824E-23     1.7937E-42

      iter #   7 total cpu time :  4113.4 secs   av.it.:  15.9
      thresh= 3.974E-08 alpha_mix =  0.700 |ddv_scf|^2 =  7.333E-16

     End of self-consistent calculation

     Convergence has been achieved 


     Representation #   7 modes #  10  11

     Self-consistent Calculation

     Pert. #  1: Fermi energy shift (Ry) =     5.2940E-23     1.5046E-36
     Pert. #  2: Fermi energy shift (Ry) =     1.5985E-22     6.0185E-36

      iter #   1 total cpu time :  4215.9 secs   av.it.:   7.7
      thresh= 1.000E-02 alpha_mix =  0.700 |ddv_scf|^2 =  2.012E-07

     Pert. #  1: Fermi energy shift (Ry) =     0.0000E+00    -5.8775E-39
     Pert. #  2: Fermi energy shift (Ry) =    -7.3510E-24    -1.1755E-38

      iter #   2 total cpu time :  4377.8 secs   av.it.:  17.7
      thresh= 4.485E-05 alpha_mix =  0.700 |ddv_scf|^2 =  1.363E-06

     Pert. #  1: Fermi energy shift (Ry) =     2.6470E-23     5.8775E-39
     Pert. #  2: Fermi energy shift (Ry) =     2.0769E-23     1.1755E-38

      iter #   3 total cpu time :  4531.4 secs   av.it.:  16.1
      thresh= 1.167E-04 alpha_mix =  0.700 |ddv_scf|^2 =  1.989E-06

     Pert. #  1: Fermi energy shift (Ry) =     0.0000E+00     0.0000E+00
     Pert. #  2: Fermi energy shift (Ry) =     4.1228E-23    -1.1755E-38

      iter #   4 total cpu time :  4679.2 secs   av.it.:  15.4
      thresh= 1.410E-04 alpha_mix =  0.700 |ddv_scf|^2 =  4.302E-08

     Pert. #  1: Fermi energy shift (Ry) =    -5.2940E-23     1.8367E-40
     Pert. #  2: Fermi energy shift (Ry) =    -6.8107E-23    -3.6734E-40

      iter #   5 total cpu time :  4817.1 secs   av.it.:  15.1
      thresh= 2.074E-05 alpha_mix =  0.700 |ddv_scf|^2 =  4.458E-09

     Pert. #  1: Fermi energy shift (Ry) =     2.6470E-23    -1.8367E-40
     Pert. #  2: Fermi energy shift (Ry) =     8.8671E-23    -3.6734E-40

      iter #   6 total cpu time :  4969.2 secs   av.it.:  14.9
      thresh= 6.677E-06 alpha_mix =  0.700 |ddv_scf|^2 =  1.429E-11

     Pert. #  1: Fermi energy shift (Ry) =     5.2940E-23     2.2959E-41
     Pert. #  2: Fermi energy shift (Ry) =     3.5519E-23     4.5918E-41

      iter #   7 total cpu time :  5112.1 secs   av.it.:  15.4
      thresh= 3.780E-07 alpha_mix =  0.700 |ddv_scf|^2 =  9.961E-15

     End of self-consistent calculation

     Convergence has been achieved 


     Representation #   8 mode #  12

     Self-consistent Calculation

     Pert. #  1: Fermi energy shift (Ry) =     5.2940E-23    -4.5139E-36

      iter #   1 total cpu time :  5172.0 secs   av.it.:   8.3
      thresh= 1.000E-02 alpha_mix =  0.700 |ddv_scf|^2 =  2.344E-06

     Pert. #  1: Fermi energy shift (Ry) =    -1.5882E-22    -1.1755E-38

      iter #   2 total cpu time :  5242.0 secs   av.it.:  15.4
      thresh= 1.531E-04 alpha_mix =  0.700 |ddv_scf|^2 =  6.726E-07

     Pert. #  1: Fermi energy shift (Ry) =    -3.3087E-24    -4.4081E-39

      iter #   3 total cpu time :  5313.5 secs   av.it.:  15.5
      thresh= 8.201E-05 alpha_mix =  0.700 |ddv_scf|^2 =  1.153E-07

     Pert. #  1: Fermi energy shift (Ry) =    -3.3087E-24    -1.4694E-39

      iter #   4 total cpu time :  5394.5 secs   av.it.:  14.6
      thresh= 3.396E-05 alpha_mix =  0.700 |ddv_scf|^2 =  2.170E-07

     Pert. #  1: Fermi energy shift (Ry) =    -6.6174E-24     1.4694E-39

      iter #   5 total cpu time :  5456.1 secs   av.it.:  13.0
      thresh= 4.658E-05 alpha_mix =  0.700 |ddv_scf|^2 =  6.095E-10

     Pert. #  1: Fermi energy shift (Ry) =    -1.6544E-23     1.8367E-40

      iter #   6 total cpu time :  5523.1 secs   av.it.:  14.7
      thresh= 2.469E-06 alpha_mix =  0.700 |ddv_scf|^2 =  2.100E-12

     Pert. #  1: Fermi energy shift (Ry) =     9.9262E-24     2.2959E-41

      iter #   7 total cpu time :  5609.6 secs   av.it.:  14.9
      thresh= 1.449E-07 alpha_mix =  0.700 |ddv_scf|^2 =  2.957E-13

     Pert. #  1: Fermi energy shift (Ry) =    -3.3087E-24     1.1479E-41

      iter #   8 total cpu time :  5677.4 secs   av.it.:  14.5
      thresh= 5.438E-08 alpha_mix =  0.700 |ddv_scf|^2 =  2.902E-15

     End of self-consistent calculation

     Convergence has been achieved 


     Representation #   9 mode #  13

     Self-consistent Calculation

     Pert. #  1: Fermi energy shift (Ry) =     0.0000E+00     0.0000E+00

      iter #   1 total cpu time :  5727.2 secs   av.it.:   7.4
      thresh= 1.000E-02 alpha_mix =  0.700 |ddv_scf|^2 =  8.036E-07

     Pert. #  1: Fermi energy shift (Ry) =     7.9409E-23     0.0000E+00

      iter #   2 total cpu time :  5800.9 secs   av.it.:  16.1
      thresh= 8.964E-05 alpha_mix =  0.700 |ddv_scf|^2 =  5.409E-06

     Pert. #  1: Fermi energy shift (Ry) =    -2.1176E-22     0.0000E+00

      iter #   3 total cpu time :  5867.1 secs   av.it.:  14.4
      thresh= 2.326E-04 alpha_mix =  0.700 |ddv_scf|^2 =  7.975E-06

     Pert. #  1: Fermi energy shift (Ry) =     1.0588E-22     0.0000E+00

      iter #   4 total cpu time :  5936.0 secs   av.it.:  13.8
      thresh= 2.824E-04 alpha_mix =  0.700 |ddv_scf|^2 =  1.716E-07

     Pert. #  1: Fermi energy shift (Ry) =    -2.1176E-22     0.0000E+00

      iter #   5 total cpu time :  6001.0 secs   av.it.:  13.5
      thresh= 4.142E-05 alpha_mix =  0.700 |ddv_scf|^2 =  1.774E-08

     Pert. #  1: Fermi energy shift (Ry) =     0.0000E+00     0.0000E+00

      iter #   6 total cpu time :  6062.6 secs   av.it.:  13.1
      thresh= 1.332E-05 alpha_mix =  0.700 |ddv_scf|^2 =  5.634E-11

     Pert. #  1: Fermi energy shift (Ry) =     0.0000E+00     0.0000E+00

      iter #   7 total cpu time :  6126.2 secs   av.it.:  13.8
      thresh= 7.506E-07 alpha_mix =  0.700 |ddv_scf|^2 =  3.918E-14

     Pert. #  1: Fermi energy shift (Ry) =     0.0000E+00     0.0000E+00

      iter #   8 total cpu time :  6213.0 secs   av.it.:  15.0
      thresh= 1.979E-08 alpha_mix =  0.700 |ddv_scf|^2 =  1.607E-15

     End of self-consistent calculation

     Convergence has been achieved 


     Representation #  10 modes #  14  15

     Self-consistent Calculation

     Pert. #  1: Fermi energy shift (Ry) =     1.6544E-23     1.1285E-36
     Pert. #  2: Fermi energy shift (Ry) =    -1.2350E-26     1.8573E-36

      iter #   1 total cpu time :  6289.8 secs   av.it.:   5.1
      thresh= 1.000E-02 alpha_mix =  0.700 |ddv_scf|^2 =  9.614E-09

     Pert. #  1: Fermi energy shift (Ry) =    -1.9852E-23     0.0000E+00
     Pert. #  2: Fermi energy shift (Ry) =     2.4875E-24     1.6071E-40

      iter #   2 total cpu time :  6452.6 secs   av.it.:  17.2
      thresh= 9.805E-06 alpha_mix =  0.700 |ddv_scf|^2 =  2.563E-09

     Pert. #  1: Fermi energy shift (Ry) =    -9.9262E-24     1.4694E-39
     Pert. #  2: Fermi energy shift (Ry) =    -6.8117E-24    -1.1479E-39

      iter #   3 total cpu time :  6613.7 secs   av.it.:  17.2
      thresh= 5.063E-06 alpha_mix =  0.700 |ddv_scf|^2 =  1.446E-09

     Pert. #  1: Fermi energy shift (Ry) =    -1.9852E-23     5.5101E-40
     Pert. #  2: Fermi energy shift (Ry) =    -6.4818E-24    -4.5918E-40

      iter #   4 total cpu time :  6761.4 secs   av.it.:  15.7
      thresh= 3.803E-06 alpha_mix =  0.700 |ddv_scf|^2 =  6.319E-10

     Pert. #  1: Fermi energy shift (Ry) =    -9.9262E-24     3.6734E-40
     Pert. #  2: Fermi energy shift (Ry) =     6.9226E-24    -4.5918E-41

      iter #   5 total cpu time :  6902.1 secs   av.it.:  15.3
      thresh= 2.514E-06 alpha_mix =  0.700 |ddv_scf|^2 =  6.819E-12

     Pert. #  1: Fermi energy shift (Ry) =     3.3087E-24     1.1479E-41
     Pert. #  2: Fermi energy shift (Ry) =    -6.3399E-24     1.5067E-41

      iter #   6 total cpu time :  7051.1 secs   av.it.:  15.8
      thresh= 2.611E-07 alpha_mix =  0.700 |ddv_scf|^2 =  5.809E-15

     End of self-consistent calculation

     Convergence has been achieved 

     Number of q in the star =    1
     List of q in the star:
          1   0.000000000   0.000000000   0.000000000

     Diagonalizing the dynamical matrix

     q = (    0.000000000   0.000000000   0.000000000 ) 

 **************************************************************************
     freq (    1) =       0.151764 [THz] =       5.062310 [cm-1]
     freq (    2) =       0.174676 [THz] =       5.826552 [cm-1]
     freq (    3) =       0.174676 [THz] =       5.826552 [cm-1]
     freq (    4) =       2.536345 [THz] =      84.603369 [cm-1]
     freq (    5) =       2.544791 [THz] =      84.885097 [cm-1]
     freq (    6) =       2.544791 [THz] =      84.885099 [cm-1]
     freq (    7) =      17.058861 [THz] =     569.022363 [cm-1]
     freq (    8) =      17.066016 [THz] =     569.261017 [cm-1]
     freq (    9) =      17.066016 [THz] =     569.261031 [cm-1]
     freq (   10) =      21.997145 [THz] =     733.745766 [cm-1]
     freq (   11) =      22.047296 [THz] =     735.418637 [cm-1]
     freq (   12) =      22.047296 [THz] =     735.418646 [cm-1]
     freq (   13) =      27.230029 [THz] =     908.296009 [cm-1]
     freq (   14) =      27.284697 [THz] =     910.119542 [cm-1]
     freq (   15) =      27.284698 [THz] =     910.119553 [cm-1]
 **************************************************************************

     Gaussian Broadening:   0.005 Ry, ngauss=   0
     DOS =  4.219570 states/spin/Ry/Unit Cell at Ef= 11.357251 eV
     double delta at Ef =830.719436
     lambda(    1)=  0.0000   gamma=    0.00 GHz
     lambda(    2)=  0.0000   gamma=    0.00 GHz
     lambda(    3)=  0.0000   gamma=    0.00 GHz
     lambda(    4)=  0.0001   gamma=    0.00 GHz
     lambda(    5)=  0.0001   gamma=    0.00 GHz
     lambda(    6)=  0.0001   gamma=    0.00 GHz
     lambda(    7)=  0.0001   gamma=    0.15 GHz
     lambda(    8)=  0.0001   gamma=    0.15 GHz
     lambda(    9)=  0.0001   gamma=    0.15 GHz
     lambda(   10)=  0.0505   gamma=   98.54 GHz
     lambda(   11)=  0.0503   gamma=   98.53 GHz
     lambda(   12)=  0.0503   gamma=   98.53 GHz
     lambda(   13)=  0.0000   gamma=    0.02 GHz
     lambda(   14)=  0.0000   gamma=    0.02 GHz
     lambda(   15)=  0.0000   gamma=    0.02 GHz

     Gaussian Broadening:   0.010 Ry, ngauss=   0
     DOS =  4.820730 states/spin/Ry/Unit Cell at Ef= 11.343103 eV
     double delta at Ef =438.692047
     lambda(    1)=  0.0000   gamma=    0.00 GHz
     lambda(    2)=  0.0000   gamma=    0.00 GHz
     lambda(    3)=  0.0000   gamma=    0.00 GHz
     lambda(    4)=  0.0001   gamma=    0.00 GHz
     lambda(    5)=  0.0001   gamma=    0.00 GHz
     lambda(    6)=  0.0001   gamma=    0.00 GHz
     lambda(    7)=  0.0001   gamma=    0.15 GHz
     lambda(    8)=  0.0001   gamma=    0.15 GHz
     lambda(    9)=  0.0001   gamma=    0.15 GHz
     lambda(   10)=  0.0158   gamma=   35.18 GHz
     lambda(   11)=  0.0157   gamma=   35.17 GHz
     lambda(   12)=  0.0157   gamma=   35.17 GHz
     lambda(   13)=  0.0000   gamma=    0.02 GHz
     lambda(   14)=  0.0000   gamma=    0.02 GHz
     lambda(   15)=  0.0000   gamma=    0.02 GHz

     Gaussian Broadening:   0.015 Ry, ngauss=   0
     DOS =  5.665700 states/spin/Ry/Unit Cell at Ef= 11.344030 eV
     double delta at Ef =327.871000
     lambda(    1)=  0.0000   gamma=    0.00 GHz
     lambda(    2)=  0.0000   gamma=    0.00 GHz
     lambda(    3)=  0.0000   gamma=    0.00 GHz
     lambda(    4)=  0.0002   gamma=    0.01 GHz
     lambda(    5)=  0.0002   gamma=    0.01 GHz
     lambda(    6)=  0.0002   gamma=    0.01 GHz
     lambda(    7)=  0.0003   gamma=    0.49 GHz
     lambda(    8)=  0.0003   gamma=    0.49 GHz
     lambda(    9)=  0.0003   gamma=    0.49 GHz
     lambda(   10)=  0.0117   gamma=   30.63 GHz
     lambda(   11)=  0.0116   gamma=   30.63 GHz
     lambda(   12)=  0.0116   gamma=   30.63 GHz
     lambda(   13)=  0.0000   gamma=    0.09 GHz
     lambda(   14)=  0.0000   gamma=    0.09 GHz
     lambda(   15)=  0.0000   gamma=    0.09 GHz

     Gaussian Broadening:   0.020 Ry, ngauss=   0
     DOS =  5.846188 states/spin/Ry/Unit Cell at Ef= 11.349274 eV
     double delta at Ef =254.579883
     lambda(    1)=  0.0000   gamma=    0.00 GHz
     lambda(    2)=  0.0000   gamma=    0.00 GHz
     lambda(    3)=  0.0000   gamma=    0.00 GHz
     lambda(    4)=  0.0004   gamma=    0.01 GHz
     lambda(    5)=  0.0004   gamma=    0.01 GHz
     lambda(    6)=  0.0004   gamma=    0.01 GHz
     lambda(    7)=  0.0007   gamma=    1.21 GHz
     lambda(    8)=  0.0007   gamma=    1.21 GHz
     lambda(    9)=  0.0007   gamma=    1.21 GHz
     lambda(   10)=  0.0122   gamma=   32.83 GHz
     lambda(   11)=  0.0121   gamma=   32.83 GHz
     lambda(   12)=  0.0121   gamma=   32.83 GHz
     lambda(   13)=  0.0001   gamma=    0.38 GHz
     lambda(   14)=  0.0001   gamma=    0.38 GHz
     lambda(   15)=  0.0001   gamma=    0.38 GHz

     Gaussian Broadening:   0.025 Ry, ngauss=   0
     DOS =  5.784237 states/spin/Ry/Unit Cell at Ef= 11.353945 eV
     double delta at Ef =204.189754
     lambda(    1)=  0.0000   gamma=    0.00 GHz
     lambda(    2)=  0.0000   gamma=    0.00 GHz
     lambda(    3)=  0.0000   gamma=    0.00 GHz
     lambda(    4)=  0.0009   gamma=    0.03 GHz
     lambda(    5)=  0.0009   gamma=    0.03 GHz
     lambda(    6)=  0.0009   gamma=    0.03 GHz
     lambda(    7)=  0.0023   gamma=    3.73 GHz
     lambda(    8)=  0.0023   gamma=    3.74 GHz
     lambda(    9)=  0.0023   gamma=    3.74 GHz
     lambda(   10)=  0.0121   gamma=   32.39 GHz
     lambda(   11)=  0.0121   gamma=   32.39 GHz
     lambda(   12)=  0.0121   gamma=   32.39 GHz
     lambda(   13)=  0.0005   gamma=    2.06 GHz
     lambda(   14)=  0.0005   gamma=    2.05 GHz
     lambda(   15)=  0.0005   gamma=    2.05 GHz

     Gaussian Broadening:   0.030 Ry, ngauss=   0
     DOS =  5.528533 states/spin/Ry/Unit Cell at Ef= 11.357750 eV
     double delta at Ef =168.954382
     lambda(    1)=  0.0000   gamma=    0.00 GHz
     lambda(    2)=  0.0000   gamma=    0.00 GHz
     lambda(    3)=  0.0000   gamma=    0.00 GHz
     lambda(    4)=  0.0022   gamma=    0.07 GHz
     lambda(    5)=  0.0022   gamma=    0.07 GHz
     lambda(    6)=  0.0022   gamma=    0.07 GHz
     lambda(    7)=  0.0061   gamma=    9.39 GHz
     lambda(    8)=  0.0061   gamma=    9.41 GHz
     lambda(    9)=  0.0061   gamma=    9.41 GHz
     lambda(   10)=  0.0120   gamma=   30.71 GHz
     lambda(   11)=  0.0120   gamma=   30.71 GHz
     lambda(   12)=  0.0120   gamma=   30.71 GHz
     lambda(   13)=  0.0015   gamma=    5.92 GHz
     lambda(   14)=  0.0015   gamma=    5.90 GHz
     lambda(   15)=  0.0015   gamma=    5.90 GHz

     Gaussian Broadening:   0.035 Ry, ngauss=   0
     DOS =  5.183908 states/spin/Ry/Unit Cell at Ef= 11.361576 eV
     double delta at Ef =144.021632
     lambda(    1)=  0.0000   gamma=    0.00 GHz
     lambda(    2)=  0.0000   gamma=    0.00 GHz
     lambda(    3)=  0.0000   gamma=    0.00 GHz
     lambda(    4)=  0.0047   gamma=    0.15 GHz
     lambda(    5)=  0.0046   gamma=    0.15 GHz
     lambda(    6)=  0.0046   gamma=    0.15 GHz
     lambda(    7)=  0.0121   gamma=   17.49 GHz
     lambda(    8)=  0.0122   gamma=   17.53 GHz
     lambda(    9)=  0.0122   gamma=   17.53 GHz
     lambda(   10)=  0.0124   gamma=   29.63 GHz
     lambda(   11)=  0.0123   gamma=   29.63 GHz
     lambda(   12)=  0.0123   gamma=   29.63 GHz
     lambda(   13)=  0.0030   gamma=   11.18 GHz
     lambda(   14)=  0.0030   gamma=   11.14 GHz
     lambda(   15)=  0.0030   gamma=   11.14 GHz

     Gaussian Broadening:   0.040 Ry, ngauss=   0
     DOS =  4.842657 states/spin/Ry/Unit Cell at Ef= 11.367157 eV
     double delta at Ef =126.480980
     lambda(    1)=  0.0000   gamma=    0.01 GHz
     lambda(    2)=  0.0000   gamma=    0.01 GHz
     lambda(    3)=  0.0000   gamma=    0.01 GHz
     lambda(    4)=  0.0089   gamma=    0.26 GHz
     lambda(    5)=  0.0088   gamma=    0.26 GHz
     lambda(    6)=  0.0088   gamma=    0.26 GHz
     lambda(    7)=  0.0204   gamma=   27.41 GHz
     lambda(    8)=  0.0204   gamma=   27.47 GHz
     lambda(    9)=  0.0204   gamma=   27.47 GHz
     lambda(   10)=  0.0135   gamma=   30.26 GHz
     lambda(   11)=  0.0135   gamma=   30.25 GHz
     lambda(   12)=  0.0135   gamma=   30.25 GHz
     lambda(   13)=  0.0049   gamma=   16.87 GHz
     lambda(   14)=  0.0049   gamma=   16.81 GHz
     lambda(   15)=  0.0049   gamma=   16.81 GHz

     Gaussian Broadening:   0.045 Ry, ngauss=   0
     DOS =  4.550602 states/spin/Ry/Unit Cell at Ef= 11.376058 eV
     double delta at Ef =114.495699
     lambda(    1)=  0.0000   gamma=    0.01 GHz
     lambda(    2)=  0.0000   gamma=    0.01 GHz
     lambda(    3)=  0.0000   gamma=    0.01 GHz
     lambda(    4)=  0.0155   gamma=    0.43 GHz
     lambda(    5)=  0.0154   gamma=    0.43 GHz
     lambda(    6)=  0.0154   gamma=    0.43 GHz
     lambda(    7)=  0.0310   gamma=   39.23 GHz
     lambda(    8)=  0.0311   gamma=   39.32 GHz
     lambda(    9)=  0.0311   gamma=   39.32 GHz
     lambda(   10)=  0.0158   gamma=   33.27 GHz
     lambda(   11)=  0.0158   gamma=   33.27 GHz
     lambda(   12)=  0.0158   gamma=   33.27 GHz
     lambda(   13)=  0.0070   gamma=   22.49 GHz
     lambda(   14)=  0.0069   gamma=   22.40 GHz
     lambda(   15)=  0.0069   gamma=   22.40 GHz

     Gaussian Broadening:   0.050 Ry, ngauss=   0
     DOS =  4.331157 states/spin/Ry/Unit Cell at Ef= 11.388608 eV
     double delta at Ef =106.790567
     lambda(    1)=  0.0000   gamma=    0.02 GHz
     lambda(    2)=  0.0000   gamma=    0.02 GHz
     lambda(    3)=  0.0000   gamma=    0.02 GHz
     lambda(    4)=  0.0249   gamma=    0.66 GHz
     lambda(    5)=  0.0247   gamma=    0.66 GHz
     lambda(    6)=  0.0247   gamma=    0.66 GHz
     lambda(    7)=  0.0440   gamma=   52.94 GHz
     lambda(    8)=  0.0440   gamma=   53.05 GHz
     lambda(    9)=  0.0440   gamma=   53.05 GHz
     lambda(   10)=  0.0195   gamma=   39.00 GHz
     lambda(   11)=  0.0194   gamma=   39.00 GHz
     lambda(   12)=  0.0194   gamma=   39.00 GHz
     lambda(   13)=  0.0091   gamma=   27.77 GHz
     lambda(   14)=  0.0090   gamma=   27.66 GHz
     lambda(   15)=  0.0090   gamma=   27.66 GHz

     Calculation of q =    0.0000000   0.0000000   0.2500000

     Subspace diagonalization in iterative solution of the eigenvalue problem:
     one sub-group per band group will be used
     scalapack distributed-memory algorithm (size of sub-group:  2*  2 procs)


     Parallelization info
     --------------------
     sticks:   dense  smooth     PW     G-vecs:    dense   smooth      PW
     Min         488     244     72                19862     7018    1142
     Max         489     245     73                19863     7021    1145
     Sum        2933    1465    437               119177    42115    6859


     Title: 
     BaAuH3 phonon + electron-phonon 4x4x4 q (RTSC A10 · SrAuH3 A-site Ba-varia


     bravais-lattice index     =            0
     lattice parameter (alat)  =       7.5797  a.u.
     unit-cell volume          =     435.4739 (a.u.)^3
     number of atoms/cell      =            5
     number of atomic types    =            3
     number of electrons       =        24.00
     number of Kohn-Sham states=           16
     kinetic-energy cutoff     =      80.0000  Ry
     charge density cutoff     =     640.0000  Ry
     Exchange-correlation= PBE
                           (   1   4   3   4   0   0   0)

     celldm(1)=   7.579729  celldm(2)=   0.000000  celldm(3)=   0.000000
     celldm(4)=   0.000000  celldm(5)=   0.000000  celldm(6)=   0.000000

     crystal axes: (cart. coord. in units of alat)
               a(1) = (   1.000000   0.000000  -0.000000 )  
               a(2) = (   0.000000   1.000002  -0.000000 )  
               a(3) = (  -0.000000  -0.000000   1.000000 )  

     reciprocal axes: (cart. coord. in units 2 pi/alat)
               b(1) = (  1.000000 -0.000000  0.000000 )  
               b(2) = ( -0.000000  0.999998  0.000000 )  
               b(3) = (  0.000000  0.000000  1.000000 )  


     PseudoPot. # 1 for Ba read from file:
     ./pseudo/Ba.pbe-spn-rrkjus_psl.1.0.0.UPF
     MD5 check sum: 03210ee0890048675a516292961e2951
     Pseudo is Ultrasoft + core correction, Zval = 10.0
     Generated using &quot;atomic&quot; code by A. Dal Corso  v.6.2.2
     Using radial grid of 1251 points,  7 beta functions with: 
                l(1) =   0
                l(2) =   0
                l(3) =   0
                l(4) =   1
                l(5) =   1
                l(6) =   2
                l(7) =   2
     Q(r) pseudized with 0 coefficients 


     PseudoPot. # 2 for Au read from file:
     ./pseudo/Au.pbe-n-rrkjus_psl.1.0.0.UPF
     MD5 check sum: 36a5134bc4f0d73a839546df15754897
     Pseudo is Ultrasoft + core correction, Zval = 11.0
     Generated using &quot;atomic&quot; code by A. Dal Corso  v.6.3
     Using radial grid of 1279 points,  6 beta functions with: 
                l(1) =   0
                l(2) =   0
                l(3) =   1
                l(4) =   1
                l(5) =   2
                l(6) =   2
     Q(r) pseudized with 0 coefficients 


     PseudoPot. # 3 for H  read from file:
     ./pseudo/H.pbe-rrkjus_psl.1.0.0.UPF
     MD5 check sum: 9e615844a0e642e0aee8526d0d0f65f7
     Pseudo is Ultrasoft, Zval =  1.0
     Generated using &quot;atomic&quot; code by A. Dal Corso  v.6.3MaX
     Using radial grid of  929 points,  2 beta functions with: 
                l(1) =   0
                l(2) =   0
     Q(r) pseudized with 0 coefficients 


     atomic species   valence    mass     pseudopotential
        Ba            10.00   137.32700     Ba( 1.00)
        Au            11.00   196.96700     Au( 1.00)
        H              1.00     1.00800     H ( 1.00)

     16 Sym. Ops., with inversion, found



   Cartesian axes

     site n.     atom                  positions (alat units)
         1           Ba  tau(   1) = (   0.5000043   0.5000046   0.4999996  )
         2           Au  tau(   2) = (  -0.0000010  -0.0000008   0.0000001  )
         3           H   tau(   3) = (   0.4999989  -0.0000008   0.0000001  )
         4           H   tau(   4) = (  -0.0000010   0.5000004   0.0000001  )
         5           H   tau(   5) = (  -0.0000011  -0.0000008   0.5000001  )

     number of k points=  2592  Methfessel-Paxton smearing, width (Ry)=  0.0200

     Number of k-points >= 100: set verbosity='high' to print them.

     Dense  grid:   119177 G-vectors     FFT dimensions: (  64,  64,  64)

     Smooth grid:    42115 G-vectors     FFT dimensions: (  45,  45,  45)

     Estimated max dynamical RAM per process >      79.42 MB

     Estimated total dynamical RAM >     476.54 MB

     The potential is recalculated from file :
     ./out/_ph0/baauh3.q_2/baauh3.save/charge-density

     Starting wfcs are   17 atomic wfcs

     Band Structure Calculation
     Davidson diagonalization with overlap

     ethr =  4.17E-11,  avg # of iterations = 26.3

     total cpu time spent up to now is      919.0 secs

     End of band structure calculation

     Number of k-points >= 100: set verbosity='high' to print the bands.

     the Fermi energy is    11.3493 ev

     Writing output data file ./out/_ph0/baauh3.q_2/baauh3.save/
WARNING(FoX)
emitting non-ASCII character. Platform-dependent result!
WARNING(FoX)
emitting non-ASCII character. Platform-dependent result!

     BaAuH3 phonon + electron-phonon 4x4x4 q (RTSC A10 · SrAuH3 A-site Ba-varia

     bravais-lattice index     =            0
     lattice parameter (alat)  =       7.5797  a.u.
     unit-cell volume          =     435.4739 (a.u.)^3
     number of atoms/cell      =            5
     number of atomic types    =            3
     kinetic-energy cut-off    =      80.0000  Ry
     charge density cut-off    =     640.0000  Ry
     convergence threshold     =      1.0E-14
     beta                      =       0.7000
     number of iterations used =            4
     Exchange-correlation= PBE
                           (   1   4   3   4   0   0   0)


     celldm(1)=    7.57973  celldm(2)=    0.00000  celldm(3)=    0.00000
     celldm(4)=    0.00000  celldm(5)=    0.00000  celldm(6)=    0.00000

     crystal axes: (cart. coord. in units of alat)
               a(1) = (  1.0000  0.0000 -0.0000 )  
               a(2) = (  0.0000  1.0000 -0.0000 )  
               a(3) = ( -0.0000 -0.0000  1.0000 )  

     reciprocal axes: (cart. coord. in units 2 pi/alat)
               b(1) = (  1.0000 -0.0000  0.0000 )  
               b(2) = ( -0.0000  1.0000  0.0000 )  
               b(3) = (  0.0000  0.0000  1.0000 )  


     Atoms inside the unit cell: 

     Cartesian axes

     site n.  atom      mass           positions (alat units)
        1     Ba 137.3270   tau(    1) = (    0.50000    0.50000    0.50000  )
        2     Au 196.9670   tau(    2) = (   -0.00000   -0.00000    0.00000  )
        3     H    1.0080   tau(    3) = (    0.50000   -0.00000    0.00000  )
        4     H    1.0080   tau(    4) = (   -0.00000    0.50000    0.00000  )
        5     H    1.0080   tau(    5) = (   -0.00000   -0.00000    0.50000  )

     Computing dynamical matrix for 
                    q = (   0.0000000   0.0000000   0.2500000 )

      4 Sym.Ops. (no q -> -q+G )


     G cutoff =  931.3815  (  19862 G-vectors)     FFT grid: ( 64, 64, 64)
     G cutoff =  465.6908  (   7020 G-vectors)  smooth grid: ( 45, 45, 45)

     number of k points=  2592  Methfessel-Paxton smearing, width (Ry)=  0.0200

     PseudoPot. # 1 for Ba read from file:
     ./pseudo/Ba.pbe-spn-rrkjus_psl.1.0.0.UPF
     MD5 check sum: 03210ee0890048675a516292961e2951
     Pseudo is Ultrasoft + core correction, Zval = 10.0
     Generated using &quot;atomic&quot; code by A. Dal Corso  v.6.2.2
     Using radial grid of 1251 points,  7 beta functions with: 
                l(1) =   0
                l(2) =   0
                l(3) =   0
                l(4) =   1
                l(5) =   1
                l(6) =   2
                l(7) =   2
     Q(r) pseudized with 0 coefficients 


     PseudoPot. # 2 for Au read from file:
     ./pseudo/Au.pbe-n-rrkjus_psl.1.0.0.UPF
     MD5 check sum: 36a5134bc4f0d73a839546df15754897
     Pseudo is Ultrasoft + core correction, Zval = 11.0
     Generated using &quot;atomic&quot; code by A. Dal Corso  v.6.3
     Using radial grid of 1279 points,  6 beta functions with: 
                l(1) =   0
                l(2) =   0
                l(3) =   1
                l(4) =   1
                l(5) =   2
                l(6) =   2
     Q(r) pseudized with 0 coefficients 


     PseudoPot. # 3 for H  read from file:
     ./pseudo/H.pbe-rrkjus_psl.1.0.0.UPF
     MD5 check sum: 9e615844a0e642e0aee8526d0d0f65f7
     Pseudo is Ultrasoft, Zval =  1.0
     Generated using &quot;atomic&quot; code by A. Dal Corso  v.6.3MaX
     Using radial grid of  929 points,  2 beta functions with: 
                l(1) =   0
                l(2) =   0
     Q(r) pseudized with 0 coefficients 



     Atomic displacements:
     There are   15 irreducible representations

     Representation     1      1 modes -  To be done

     Representation     2      1 modes -  To be done

     Representation     3      1 modes -  To be done

     Representation     4      1 modes -  To be done

     Representation     5      1 modes -  To be done

     Representation     6      1 modes -  To be done

     Representation     7      1 modes -  To be done

     Representation     8      1 modes -  To be done

     Representation     9      1 modes -  To be done

     Representation    10      1 modes -  To be done

     Representation    11      1 modes -  To be done

     Representation    12      1 modes -  To be done

     Representation    13      1 modes -  To be done

     Representation    14      1 modes -  To be done

     Representation    15      1 modes -  To be done



     Alpha used in Ewald sum =   2.8000
     PHONON       :      2h 6m CPU      2h15m WALL



     Representation #   1 mode #   1

     Self-consistent Calculation

      iter #   1 total cpu time :  8200.6 secs   av.it.:   4.4
      thresh= 1.000E-02 alpha_mix =  0.700 |ddv_scf|^2 =  1.347E-08

      iter #   2 total cpu time :  8452.7 secs   av.it.:  16.0
      thresh= 1.161E-05 alpha_mix =  0.700 |ddv_scf|^2 =  1.959E-09

      iter #   3 total cpu time :  8699.0 secs   av.it.:  16.7
      thresh= 4.426E-06 alpha_mix =  0.700 |ddv_scf|^2 =  6.297E-09

      iter #   4 total cpu time :  8917.6 secs   av.it.:  14.3
      thresh= 7.935E-06 alpha_mix =  0.700 |ddv_scf|^2 =  3.430E-09

      iter #   5 total cpu time :  9134.6 secs   av.it.:  14.3
      thresh= 5.856E-06 alpha_mix =  0.700 |ddv_scf|^2 =  6.536E-13

      iter #   6 total cpu time :  9388.0 secs   av.it.:  16.6
      thresh= 8.085E-08 alpha_mix =  0.700 |ddv_scf|^2 =  1.054E-12

      iter #   7 total cpu time :  9628.0 secs   av.it.:  14.5
      thresh= 1.026E-07 alpha_mix =  0.700 |ddv_scf|^2 =  2.135E-15

     End of self-consistent calculation

     Convergence has been achieved 


     Representation #   2 mode #   2

     Self-consistent Calculation

      iter #   1 total cpu time :  9811.2 secs   av.it.:   9.5
      thresh= 1.000E-02 alpha_mix =  0.700 |ddv_scf|^2 =  1.438E-03

      iter #   2 total cpu time : 10038.1 secs   av.it.:  15.0
      thresh= 3.792E-03 alpha_mix =  0.700 |ddv_scf|^2 =  1.412E-01

      iter #   3 total cpu time : 10241.0 secs   av.it.:  13.3
      thresh= 1.000E-02 alpha_mix =  0.700 |ddv_scf|^2 =  3.737E-06

      iter #   4 total cpu time : 10499.4 secs   av.it.:  16.0
      thresh= 1.933E-04 alpha_mix =  0.700 |ddv_scf|^2 =  1.402E-06

      iter #   5 total cpu time : 10755.3 secs   av.it.:  16.0
      thresh= 1.184E-04 alpha_mix =  0.700 |ddv_scf|^2 =  8.598E-06

      iter #   6 total cpu time : 10966.9 secs   av.it.:  13.9
      thresh= 2.932E-04 alpha_mix =  0.700 |ddv_scf|^2 =  1.522E-07

      iter #   7 total cpu time : 11186.4 secs   av.it.:  14.3
      thresh= 3.901E-05 alpha_mix =  0.700 |ddv_scf|^2 =  1.239E-08

      iter #   8 total cpu time : 11407.1 secs   av.it.:  14.4
      thresh= 1.113E-05 alpha_mix =  0.700 |ddv_scf|^2 =  4.198E-10

      iter #   9 total cpu time : 11626.6 secs   av.it.:  14.1
      thresh= 2.049E-06 alpha_mix =  0.700 |ddv_scf|^2 =  8.061E-11

      iter #  10 total cpu time : 11844.6 secs   av.it.:  14.4
      thresh= 8.978E-07 alpha_mix =  0.700 |ddv_scf|^2 =  6.555E-13

      iter #  11 total cpu time : 12066.2 secs   av.it.:  14.8
      thresh= 8.096E-08 alpha_mix =  0.700 |ddv_scf|^2 =  2.708E-13

      iter #  12 total cpu time : 12290.4 secs   av.it.:  14.9
      thresh= 5.204E-08 alpha_mix =  0.700 |ddv_scf|^2 =  6.420E-13

      iter #  13 total cpu time : 12490.8 secs   av.it.:  13.1
      thresh= 8.012E-08 alpha_mix =  0.700 |ddv_scf|^2 =  6.701E-15

     End of self-consistent calculation

     Convergence has been achieved 


     Representation #   3 mode #   3

     Self-consistent Calculation

      iter #   1 total cpu time : 12598.1 secs   av.it.:   4.4
      thresh= 1.000E-02 alpha_mix =  0.700 |ddv_scf|^2 =  1.347E-08

      iter #   2 total cpu time : 12834.1 secs   av.it.:  16.0
      thresh= 1.161E-05 alpha_mix =  0.700 |ddv_scf|^2 =  1.960E-09

      iter #   3 total cpu time : 13078.5 secs   av.it.:  16.7
      thresh= 4.427E-06 alpha_mix =  0.700 |ddv_scf|^2 =  6.326E-09

      iter #   4 total cpu time : 13291.5 secs   av.it.:  14.3
      thresh= 7.953E-06 alpha_mix =  0.700 |ddv_scf|^2 =  3.421E-09

      iter #   5 total cpu time : 13508.3 secs   av.it.:  14.3
      thresh= 5.849E-06 alpha_mix =  0.700 |ddv_scf|^2 =  6.540E-13

      iter #   6 total cpu time : 13747.2 secs   av.it.:  16.6
      thresh= 8.087E-08 alpha_mix =  0.700 |ddv_scf|^2 =  1.053E-12

      iter #   7 total cpu time : 13960.8 secs   av.it.:  14.5
      thresh= 1.026E-07 alpha_mix =  0.700 |ddv_scf|^2 =  2.135E-15

     End of self-consistent calculation

     Convergence has been achieved 


     Representation #   4 mode #   4

     Self-consistent Calculation

      iter #   1 total cpu time : 14083.0 secs   av.it.:   5.3
      thresh= 1.000E-02 alpha_mix =  0.700 |ddv_scf|^2 =  1.552E-05

      iter #   2 total cpu time : 14303.1 secs   av.it.:  14.8
      thresh= 3.940E-04 alpha_mix =  0.700 |ddv_scf|^2 =  1.545E-03

      iter #   3 total cpu time : 14471.3 secs   av.it.:  10.7
      thresh= 3.931E-03 alpha_mix =  0.700 |ddv_scf|^2 =  3.784E-08

      iter #   4 total cpu time : 14717.7 secs   av.it.:  16.9
      thresh= 1.945E-05 alpha_mix =  0.700 |ddv_scf|^2 =  1.771E-07

      iter #   5 total cpu time : 14941.4 secs   av.it.:  15.2
      thresh= 4.208E-05 alpha_mix =  0.700 |ddv_scf|^2 =  1.479E-07

      iter #   6 total cpu time : 15149.2 secs   av.it.:  13.9
      thresh= 3.845E-05 alpha_mix =  0.700 |ddv_scf|^2 =  9.530E-09

      iter #   7 total cpu time : 15360.1 secs   av.it.:  14.1
      thresh= 9.762E-06 alpha_mix =  0.700 |ddv_scf|^2 =  2.442E-11

      iter #   8 total cpu time : 15590.3 secs   av.it.:  15.7
      thresh= 4.942E-07 alpha_mix =  0.700 |ddv_scf|^2 =  7.205E-12

      iter #   9 total cpu time : 15800.4 secs   av.it.:  14.3
      thresh= 2.684E-07 alpha_mix =  0.700 |ddv_scf|^2 =  1.825E-13

      iter #  10 total cpu time : 16025.0 secs   av.it.:  15.4
      thresh= 4.272E-08 alpha_mix =  0.700 |ddv_scf|^2 =  4.549E-13

      iter #  11 total cpu time : 16231.8 secs   av.it.:  14.0
      thresh= 6.745E-08 alpha_mix =  0.700 |ddv_scf|^2 =  2.157E-13

      iter #  12 total cpu time : 16444.6 secs   av.it.:  14.4
      thresh= 4.644E-08 alpha_mix =  0.700 |ddv_scf|^2 =  4.372E-15

     End of self-consistent calculation

     Convergence has been achieved 


     Representation #   5 mode #   5

     Self-consistent Calculation

      iter #   1 total cpu time : 16558.7 secs   av.it.:   5.1
      thresh= 1.000E-02 alpha_mix =  0.700 |ddv_scf|^2 =  1.641E-05

      iter #   2 total cpu time : 16777.0 secs   av.it.:  14.9
      thresh= 4.051E-04 alpha_mix =  0.700 |ddv_scf|^2 =  1.570E-03

      iter #   3 total cpu time : 16940.7 secs   av.it.:  10.7
      thresh= 3.963E-03 alpha_mix =  0.700 |ddv_scf|^2 =  3.105E-07

      iter #   4 total cpu time : 17169.8 secs   av.it.:  15.8
      thresh= 5.573E-05 alpha_mix =  0.700 |ddv_scf|^2 =  4.476E-07

      iter #   5 total cpu time : 17387.8 secs   av.it.:  14.9
      thresh= 6.690E-05 alpha_mix =  0.700 |ddv_scf|^2 =  1.717E-07

      iter #   6 total cpu time : 17592.5 secs   av.it.:  13.8
      thresh= 4.143E-05 alpha_mix =  0.700 |ddv_scf|^2 =  4.669E-09

      iter #   7 total cpu time : 17797.2 secs   av.it.:  13.9
      thresh= 6.833E-06 alpha_mix =  0.700 |ddv_scf|^2 =  1.824E-10

      iter #   8 total cpu time : 17989.5 secs   av.it.:  12.8
      thresh= 1.351E-06 alpha_mix =  0.700 |ddv_scf|^2 =  1.361E-11

      iter #   9 total cpu time : 18207.0 secs   av.it.:  14.9
      thresh= 3.689E-07 alpha_mix =  0.700 |ddv_scf|^2 =  2.541E-13

      iter #  10 total cpu time : 18435.3 secs   av.it.:  15.7
      thresh= 5.041E-08 alpha_mix =  0.700 |ddv_scf|^2 =  1.049E-13

      iter #  11 total cpu time : 18646.3 secs   av.it.:  14.3
      thresh= 3.238E-08 alpha_mix =  0.700 |ddv_scf|^2 =  4.353E-14

      iter #  12 total cpu time : 18883.1 secs   av.it.:  16.4
      thresh= 2.086E-08 alpha_mix =  0.700 |ddv_scf|^2 =  4.340E-13

      iter #  13 total cpu time : 19095.1 secs   av.it.:  14.4
      thresh= 6.588E-08 alpha_mix =  0.700 |ddv_scf|^2 =  3.322E-16

     End of self-consistent calculation

     Convergence has been achieved 


     Representation #   6 mode #   6

     Self-consistent Calculation

      iter #   1 total cpu time : 19199.0 secs   av.it.:   4.3
      thresh= 1.000E-02 alpha_mix =  0.700 |ddv_scf|^2 =  1.399E-08

      iter #   2 total cpu time : 19431.5 secs   av.it.:  16.0
      thresh= 1.183E-05 alpha_mix =  0.700 |ddv_scf|^2 =  2.093E-09

      iter #   3 total cpu time : 19670.7 secs   av.it.:  16.6
      thresh= 4.575E-06 alpha_mix =  0.700 |ddv_scf|^2 =  1.919E-09

      iter #   4 total cpu time : 19890.5 secs   av.it.:  15.1
      thresh= 4.381E-06 alpha_mix =  0.700 |ddv_scf|^2 =  5.823E-09

      iter #   5 total cpu time : 20097.9 secs   av.it.:  14.0
      thresh= 7.631E-06 alpha_mix =  0.700 |ddv_scf|^2 =  5.296E-12

      iter #   6 total cpu time : 20320.0 secs   av.it.:  15.1
      thresh= 2.301E-07 alpha_mix =  0.700 |ddv_scf|^2 =  9.131E-14

      iter #   7 total cpu time : 20552.7 secs   av.it.:  15.9
      thresh= 3.022E-08 alpha_mix =  0.700 |ddv_scf|^2 =  2.769E-14

      iter #   8 total cpu time : 20769.2 secs   av.it.:  14.8
      thresh= 1.664E-08 alpha_mix =  0.700 |ddv_scf|^2 =  1.246E-16

     End of self-consistent calculation

     Convergence has been achieved 


     Representation #   7 mode #   7

     Self-consistent Calculation

      iter #   1 total cpu time : 20929.1 secs   av.it.:   8.5
      thresh= 1.000E-02 alpha_mix =  0.700 |ddv_scf|^2 =  2.044E-06

      iter #   2 total cpu time : 21162.0 secs   av.it.:  16.0
      thresh= 1.430E-04 alpha_mix =  0.700 |ddv_scf|^2 =  4.645E-07

      iter #   3 total cpu time : 21397.0 secs   av.it.:  16.2
      thresh= 6.815E-05 alpha_mix =  0.700 |ddv_scf|^2 =  7.281E-08

      iter #   4 total cpu time : 21617.8 secs   av.it.:  15.1
      thresh= 2.698E-05 alpha_mix =  0.700 |ddv_scf|^2 =  1.580E-07

      iter #   5 total cpu time : 21820.4 secs   av.it.:  13.7
      thresh= 3.975E-05 alpha_mix =  0.700 |ddv_scf|^2 =  4.813E-10

      iter #   6 total cpu time : 22044.1 secs   av.it.:  15.3
      thresh= 2.194E-06 alpha_mix =  0.700 |ddv_scf|^2 =  1.682E-12

      iter #   7 total cpu time : 22276.1 secs   av.it.:  16.0
      thresh= 1.297E-07 alpha_mix =  0.700 |ddv_scf|^2 =  2.168E-13

      iter #   8 total cpu time : 22501.7 secs   av.it.:  15.4
      thresh= 4.656E-08 alpha_mix =  0.700 |ddv_scf|^2 =  1.277E-14

      iter #   9 total cpu time : 22747.1 secs   av.it.:  17.0
      thresh= 1.130E-08 alpha_mix =  0.700 |ddv_scf|^2 =  2.555E-13

      iter #  10 total cpu time : 22949.3 secs   av.it.:  13.7
      thresh= 5.055E-08 alpha_mix =  0.700 |ddv_scf|^2 =  2.654E-15

     End of self-consistent calculation

     Convergence has been achieved 


     Representation #   8 mode #   8

     Self-consistent Calculation

      iter #   1 total cpu time : 23055.5 secs   av.it.:   4.5
      thresh= 1.000E-02 alpha_mix =  0.700 |ddv_scf|^2 =  2.307E-08

      iter #   2 total cpu time : 23290.0 secs   av.it.:  16.0
      thresh= 1.519E-05 alpha_mix =  0.700 |ddv_scf|^2 =  4.650E-09

      iter #   3 total cpu time : 23528.1 secs   av.it.:  16.4
      thresh= 6.819E-06 alpha_mix =  0.700 |ddv_scf|^2 =  3.383E-09

      iter #   4 total cpu time : 23744.0 secs   av.it.:  14.5
      thresh= 5.816E-06 alpha_mix =  0.700 |ddv_scf|^2 =  2.101E-09

      iter #   5 total cpu time : 23951.9 secs   av.it.:  14.1
      thresh= 4.584E-06 alpha_mix =  0.700 |ddv_scf|^2 =  2.778E-11

      iter #   6 total cpu time : 24169.0 secs   av.it.:  14.8
      thresh= 5.271E-07 alpha_mix =  0.700 |ddv_scf|^2 =  2.287E-13

      iter #   7 total cpu time : 24386.0 secs   av.it.:  14.8
      thresh= 4.783E-08 alpha_mix =  0.700 |ddv_scf|^2 =  2.488E-15

     End of self-consistent calculation

     Convergence has been achieved 


     Representation #   9 mode #   9

     Self-consistent Calculation

      iter #   1 total cpu time : 24491.0 secs   av.it.:   4.5
      thresh= 1.000E-02 alpha_mix =  0.700 |ddv_scf|^2 =  2.307E-08

      iter #   2 total cpu time : 24724.5 secs   av.it.:  16.0
      thresh= 1.519E-05 alpha_mix =  0.700 |ddv_scf|^2 =  4.651E-09

      iter #   3 total cpu time : 24963.2 secs   av.it.:  16.4
      thresh= 6.820E-06 alpha_mix =  0.700 |ddv_scf|^2 =  3.368E-09

      iter #   4 total cpu time : 25177.7 secs   av.it.:  14.5
      thresh= 5.804E-06 alpha_mix =  0.700 |ddv_scf|^2 =  2.106E-09

      iter #   5 total cpu time : 25386.5 secs   av.it.:  14.1
      thresh= 4.589E-06 alpha_mix =  0.700 |ddv_scf|^2 =  2.781E-11

      iter #   6 total cpu time : 25604.9 secs   av.it.:  14.8
      thresh= 5.273E-07 alpha_mix =  0.700 |ddv_scf|^2 =  2.288E-13

      iter #   7 total cpu time : 25823.2 secs   av.it.:  14.9
      thresh= 4.783E-08 alpha_mix =  0.700 |ddv_scf|^2 =  2.498E-15

     End of self-consistent calculation

     Convergence has been achieved 


     Representation #  10 mode #  10

     Self-consistent Calculation

      iter #   1 total cpu time : 25938.7 secs   av.it.:   5.1
      thresh= 1.000E-02 alpha_mix =  0.700 |ddv_scf|^2 =  1.641E-05

      iter #   2 total cpu time : 26157.6 secs   av.it.:  14.9
      thresh= 4.051E-04 alpha_mix =  0.700 |ddv_scf|^2 =  1.570E-03

      iter #   3 total cpu time : 26321.9 secs   av.it.:  10.7
      thresh= 3.963E-03 alpha_mix =  0.700 |ddv_scf|^2 =  3.105E-07

      iter #   4 total cpu time : 26552.4 secs   av.it.:  15.8
      thresh= 5.572E-05 alpha_mix =  0.700 |ddv_scf|^2 =  4.477E-07

      iter #   5 total cpu time : 26771.5 secs   av.it.:  14.9
      thresh= 6.691E-05 alpha_mix =  0.700 |ddv_scf|^2 =  1.716E-07

      iter #   6 total cpu time : 26978.3 secs   av.it.:  13.8
      thresh= 4.143E-05 alpha_mix =  0.700 |ddv_scf|^2 =  4.668E-09

      iter #   7 total cpu time : 27184.4 secs   av.it.:  13.9
      thresh= 6.832E-06 alpha_mix =  0.700 |ddv_scf|^2 =  1.824E-10

      iter #   8 total cpu time : 27377.4 secs   av.it.:  12.8
      thresh= 1.351E-06 alpha_mix =  0.700 |ddv_scf|^2 =  1.358E-11

      iter #   9 total cpu time : 27597.7 secs   av.it.:  14.9
      thresh= 3.685E-07 alpha_mix =  0.700 |ddv_scf|^2 =  2.528E-13

      iter #  10 total cpu time : 27826.0 secs   av.it.:  15.6
      thresh= 5.027E-08 alpha_mix =  0.700 |ddv_scf|^2 =  2.999E-14

      iter #  11 total cpu time : 28048.9 secs   av.it.:  15.2
      thresh= 1.732E-08 alpha_mix =  0.700 |ddv_scf|^2 =  5.290E-14

      iter #  12 total cpu time : 28278.3 secs   av.it.:  15.8
      thresh= 2.300E-08 alpha_mix =  0.700 |ddv_scf|^2 =  2.412E-13

      iter #  13 total cpu time : 28491.6 secs   av.it.:  14.4
      thresh= 4.912E-08 alpha_mix =  0.700 |ddv_scf|^2 =  5.014E-16

     End of self-consistent calculation

     Convergence has been achieved 


     Representation #  11 mode #  11

     Self-consistent Calculation

      iter #   1 total cpu time : 28670.5 secs   av.it.:  10.0
      thresh= 1.000E-02 alpha_mix =  0.700 |ddv_scf|^2 =  1.841E-03

      iter #   2 total cpu time : 28890.4 secs   av.it.:  15.0
      thresh= 4.290E-03 alpha_mix =  0.700 |ddv_scf|^2 =  1.775E-01

      iter #   3 total cpu time : 29090.0 secs   av.it.:  13.4
      thresh= 1.000E-02 alpha_mix =  0.700 |ddv_scf|^2 =  2.231E-05

      iter #   4 total cpu time : 29323.7 secs   av.it.:  16.0
      thresh= 4.723E-04 alpha_mix =  0.700 |ddv_scf|^2 =  4.362E-05

      iter #   5 total cpu time : 29544.4 secs   av.it.:  15.0
      thresh= 6.604E-04 alpha_mix =  0.700 |ddv_scf|^2 =  2.005E-05

      iter #   6 total cpu time : 29749.9 secs   av.it.:  13.8
      thresh= 4.477E-04 alpha_mix =  0.700 |ddv_scf|^2 =  1.134E-06

      iter #   7 total cpu time : 29957.3 secs   av.it.:  13.9
      thresh= 1.065E-04 alpha_mix =  0.700 |ddv_scf|^2 =  5.961E-09

      iter #   8 total cpu time : 30179.3 secs   av.it.:  15.2
      thresh= 7.721E-06 alpha_mix =  0.700 |ddv_scf|^2 =  5.113E-10

      iter #   9 total cpu time : 30395.7 secs   av.it.:  14.7
      thresh= 2.261E-06 alpha_mix =  0.700 |ddv_scf|^2 =  9.919E-12

      iter #  10 total cpu time : 30614.2 secs   av.it.:  14.8
      thresh= 3.150E-07 alpha_mix =  0.700 |ddv_scf|^2 =  3.988E-12

      iter #  11 total cpu time : 30818.3 secs   av.it.:  13.9
      thresh= 1.997E-07 alpha_mix =  0.700 |ddv_scf|^2 =  4.339E-13

      iter #  12 total cpu time : 31051.3 secs   av.it.:  15.9
      thresh= 6.587E-08 alpha_mix =  0.700 |ddv_scf|^2 =  3.777E-13

      iter #  13 total cpu time : 31272.0 secs   av.it.:  15.1
      thresh= 6.146E-08 alpha_mix =  0.700 |ddv_scf|^2 =  9.997E-13

      iter #  14 total cpu time : 31487.5 secs   av.it.:  14.6
      thresh= 9.998E-08 alpha_mix =  0.700 |ddv_scf|^2 =  3.588E-13

      iter #  15 total cpu time : 31706.4 secs   av.it.:  14.9
      thresh= 5.990E-08 alpha_mix =  0.700 |ddv_scf|^2 =  4.609E-13

      iter #  16 total cpu time : 31909.9 secs   av.it.:  13.8
      thresh= 6.789E-08 alpha_mix =  0.700 |ddv_scf|^2 =  6.742E-14

      iter #  17 total cpu time : 32127.4 secs   av.it.:  14.8
      thresh= 2.597E-08 alpha_mix =  0.700 |ddv_scf|^2 =  1.210E-13

      iter #  18 total cpu time : 32355.2 secs   av.it.:  15.7
      thresh= 3.478E-08 alpha_mix =  0.700 |ddv_scf|^2 =  4.127E-13

      iter #  19 total cpu time : 32572.4 secs   av.it.:  14.8
      thresh= 6.424E-08 alpha_mix =  0.700 |ddv_scf|^2 =  4.269E-13

      iter #  20 total cpu time : 32774.3 secs   av.it.:  13.7
      thresh= 6.534E-08 alpha_mix =  0.700 |ddv_scf|^2 =  1.751E-14

      iter #  21 total cpu time : 32989.5 secs   av.it.:  14.6
      thresh= 1.323E-08 alpha_mix =  0.700 |ddv_scf|^2 =  2.033E-15

     End of self-consistent calculation

     Convergence has been achieved 


     Representation #  12 mode #  12

     Self-consistent Calculation

      iter #   1 total cpu time : 33147.7 secs   av.it.:   8.5
      thresh= 1.000E-02 alpha_mix =  0.700 |ddv_scf|^2 =  2.044E-06

      iter #   2 total cpu time : 33380.9 secs   av.it.:  16.0
      thresh= 1.430E-04 alpha_mix =  0.700 |ddv_scf|^2 =  4.645E-07

      iter #   3 total cpu time : 33614.9 secs   av.it.:  16.2
      thresh= 6.815E-05 alpha_mix =  0.700 |ddv_scf|^2 =  7.303E-08

      iter #   4 total cpu time : 33836.0 secs   av.it.:  15.1
      thresh= 2.702E-05 alpha_mix =  0.700 |ddv_scf|^2 =  1.579E-07

      iter #   5 total cpu time : 34038.2 secs   av.it.:  13.7
      thresh= 3.973E-05 alpha_mix =  0.700 |ddv_scf|^2 =  4.812E-10

      iter #   6 total cpu time : 34262.0 secs   av.it.:  15.3
      thresh= 2.194E-06 alpha_mix =  0.700 |ddv_scf|^2 =  1.683E-12

      iter #   7 total cpu time : 34493.6 secs   av.it.:  16.0
      thresh= 1.297E-07 alpha_mix =  0.700 |ddv_scf|^2 =  2.168E-13

      iter #   8 total cpu time : 34721.0 secs   av.it.:  15.4
      thresh= 4.656E-08 alpha_mix =  0.700 |ddv_scf|^2 =  1.020E-14

      iter #   9 total cpu time : 34964.7 secs   av.it.:  16.8
      thresh= 1.010E-08 alpha_mix =  0.700 |ddv_scf|^2 =  7.147E-14

      iter #  10 total cpu time : 35170.7 secs   av.it.:  13.9
      thresh= 2.673E-08 alpha_mix =  0.700 |ddv_scf|^2 =  4.287E-15

     End of self-consistent calculation

     Convergence has been achieved 


     Representation #  13 mode #  13

     Self-consistent Calculation

      iter #   1 total cpu time : 35318.3 secs   av.it.:   7.6
      thresh= 1.000E-02 alpha_mix =  0.700 |ddv_scf|^2 =  6.569E-07

      iter #   2 total cpu time : 35560.5 secs   av.it.:  16.8
      thresh= 8.105E-05 alpha_mix =  0.700 |ddv_scf|^2 =  5.291E-06

      iter #   3 total cpu time : 35776.2 secs   av.it.:  14.7
      thresh= 2.300E-04 alpha_mix =  0.700 |ddv_scf|^2 =  5.300E-06

      iter #   4 total cpu time : 35986.4 secs   av.it.:  14.3
      thresh= 2.302E-04 alpha_mix =  0.700 |ddv_scf|^2 =  1.699E-07

      iter #   5 total cpu time : 36190.1 secs   av.it.:  13.8
      thresh= 4.121E-05 alpha_mix =  0.700 |ddv_scf|^2 =  1.719E-08

      iter #   6 total cpu time : 36391.8 secs   av.it.:  13.6
      thresh= 1.311E-05 alpha_mix =  0.700 |ddv_scf|^2 =  7.187E-11

      iter #   7 total cpu time : 36601.7 secs   av.it.:  14.3
      thresh= 8.478E-07 alpha_mix =  0.700 |ddv_scf|^2 =  8.867E-14

      iter #   8 total cpu time : 36845.5 secs   av.it.:  17.0
      thresh= 2.978E-08 alpha_mix =  0.700 |ddv_scf|^2 =  2.415E-12

      iter #   9 total cpu time : 37046.3 secs   av.it.:  13.6
      thresh= 1.554E-07 alpha_mix =  0.700 |ddv_scf|^2 =  9.447E-15

     End of self-consistent calculation

     Convergence has been achieved 


     Representation #  14 mode #  14

     Self-consistent Calculation

      iter #   1 total cpu time : 37149.4 secs   av.it.:   4.3
      thresh= 1.000E-02 alpha_mix =  0.700 |ddv_scf|^2 =  1.399E-08

      iter #   2 total cpu time : 37381.4 secs   av.it.:  16.0
      thresh= 1.183E-05 alpha_mix =  0.700 |ddv_scf|^2 =  2.092E-09

      iter #   3 total cpu time : 37620.7 secs   av.it.:  16.6
      thresh= 4.574E-06 alpha_mix =  0.700 |ddv_scf|^2 =  1.919E-09

      iter #   4 total cpu time : 37840.4 secs   av.it.:  15.1
      thresh= 4.381E-06 alpha_mix =  0.700 |ddv_scf|^2 =  5.821E-09

      iter #   5 total cpu time : 38046.8 secs   av.it.:  14.0
      thresh= 7.630E-06 alpha_mix =  0.700 |ddv_scf|^2 =  5.293E-12

      iter #   6 total cpu time : 38266.8 secs   av.it.:  15.1
      thresh= 2.301E-07 alpha_mix =  0.700 |ddv_scf|^2 =  9.119E-14

      iter #   7 total cpu time : 38497.0 secs   av.it.:  15.9
      thresh= 3.020E-08 alpha_mix =  0.700 |ddv_scf|^2 =  2.767E-14

      iter #   8 total cpu time : 38713.9 secs   av.it.:  14.8
      thresh= 1.663E-08 alpha_mix =  0.700 |ddv_scf|^2 =  2.087E-16

     End of self-consistent calculation

     Convergence has been achieved 


     Representation #  15 mode #  15

     Self-consistent Calculation

      iter #   1 total cpu time : 38860.5 secs   av.it.:   7.6
      thresh= 1.000E-02 alpha_mix =  0.700 |ddv_scf|^2 =  6.569E-07

      iter #   2 total cpu time : 39102.4 secs   av.it.:  16.8
      thresh= 8.105E-05 alpha_mix =  0.700 |ddv_scf|^2 =  5.291E-06

      iter #   3 total cpu time : 39318.5 secs   av.it.:  14.7
      thresh= 2.300E-04 alpha_mix =  0.700 |ddv_scf|^2 =  5.300E-06

      iter #   4 total cpu time : 39528.2 secs   av.it.:  14.3
      thresh= 2.302E-04 alpha_mix =  0.700 |ddv_scf|^2 =  1.699E-07

      iter #   5 total cpu time : 39731.9 secs   av.it.:  13.8
      thresh= 4.122E-05 alpha_mix =  0.700 |ddv_scf|^2 =  1.719E-08

      iter #   6 total cpu time : 39934.1 secs   av.it.:  13.6
      thresh= 1.311E-05 alpha_mix =  0.700 |ddv_scf|^2 =  7.187E-11

      iter #   7 total cpu time : 40145.0 secs   av.it.:  14.3
      thresh= 8.477E-07 alpha_mix =  0.700 |ddv_scf|^2 =  1.673E-13

      iter #   8 total cpu time : 40386.0 secs   av.it.:  16.7
      thresh= 4.090E-08 alpha_mix =  0.700 |ddv_scf|^2 =  4.409E-12

      iter #   9 total cpu time : 40589.3 secs   av.it.:  13.7
      thresh= 2.100E-07 alpha_mix =  0.700 |ddv_scf|^2 =  4.778E-15

     End of self-consistent calculation

     Convergence has been achieved 

     Number of q in the star =    4
     List of q in the star:
          1   0.000000003   0.000000001   0.250000000
          2  -0.000000003  -0.000000001  -0.250000000
          3   0.250000000  -0.000000008   0.000000003
          4  -0.250000000   0.000000008  -0.000000003

     Diagonalizing the dynamical matrix

     q = (    0.000000003   0.000000001   0.250000000 ) 

 **************************************************************************
     freq (    1) =       1.156449 [THz] =      38.574986 [cm-1]
     freq (    2) =       1.156532 [THz] =      38.577755 [cm-1]
     freq (    3) =       1.957153 [THz] =      65.283612 [cm-1]
     freq (    4) =       2.518640 [THz] =      84.012781 [cm-1]
     freq (    5) =       2.518689 [THz] =      84.014425 [cm-1]
     freq (    6) =       3.053278 [THz] =     101.846406 [cm-1]
     freq (    7) =      10.769700 [THz] =     359.238526 [cm-1]
     freq (    8) =      17.893378 [THz] =     596.858845 [cm-1]
     freq (    9) =      17.893677 [THz] =     596.868804 [cm-1]
     freq (   10) =      21.636732 [THz] =     721.723706 [cm-1]
     freq (   11) =      21.636813 [THz] =     721.726388 [cm-1]
     freq (   12) =      22.905811 [THz] =     764.055622 [cm-1]
     freq (   13) =      25.876802 [THz] =     863.157212 [cm-1]
     freq (   14) =      26.831690 [THz] =     895.008848 [cm-1]
     freq (   15) =      26.831935 [THz] =     895.017001 [cm-1]
 **************************************************************************

     Gaussian Broadening:   0.005 Ry, ngauss=   0
     DOS =  4.219570 states/spin/Ry/Unit Cell at Ef= 11.357250 eV
     double delta at Ef =146.155787
     lambda(    1)=  0.0033   gamma=    0.02 GHz
     lambda(    2)=  0.0033   gamma=    0.02 GHz
     lambda(    3)=  0.1506   gamma=    2.32 GHz
     lambda(    4)=  0.0006   gamma=    0.02 GHz
     lambda(    5)=  0.0006   gamma=    0.02 GHz
     lambda(    6)=  0.4769   gamma=   17.92 GHz
     lambda(    7)=  4.4722   gamma= 2090.11 GHz
     lambda(    8)=  0.0014   gamma=    1.79 GHz
     lambda(    9)=  0.0014   gamma=    1.79 GHz
     lambda(   10)=  0.0163   gamma=   30.83 GHz
     lambda(   11)=  0.0163   gamma=   30.83 GHz
     lambda(   12)=  0.1385   gamma=  292.76 GHz
     lambda(   13)=  0.0219   gamma=   59.18 GHz
     lambda(   14)=  0.0011   gamma=    3.24 GHz
     lambda(   15)=  0.0011   gamma=    3.24 GHz

     Gaussian Broadening:   0.010 Ry, ngauss=   0
     DOS =  4.820726 states/spin/Ry/Unit Cell at Ef= 11.343101 eV
     double delta at Ef =132.935231
     lambda(    1)=  0.0122   gamma=    0.08 GHz
     lambda(    2)=  0.0122   gamma=    0.08 GHz
     lambda(    3)=  0.1055   gamma=    1.86 GHz
     lambda(    4)=  0.0034   gamma=    0.10 GHz
     lambda(    5)=  0.0034   gamma=    0.10 GHz
     lambda(    6)=  0.2498   gamma=   10.72 GHz
     lambda(    7)=  1.9152   gamma= 1022.60 GHz
     lambda(    8)=  0.0075   gamma=   11.08 GHz
     lambda(    9)=  0.0075   gamma=   11.08 GHz
     lambda(   10)=  0.0297   gamma=   63.92 GHz
     lambda(   11)=  0.0297   gamma=   63.93 GHz
     lambda(   12)=  0.0832   gamma=  200.93 GHz
     lambda(   13)=  0.0505   gamma=  155.62 GHz
     lambda(   14)=  0.0057   gamma=   18.84 GHz
     lambda(   15)=  0.0057   gamma=   18.84 GHz

     Gaussian Broadening:   0.015 Ry, ngauss=   0
     DOS =  5.665693 states/spin/Ry/Unit Cell at Ef= 11.344029 eV
     double delta at Ef =130.953857
     lambda(    1)=  0.0149   gamma=    0.11 GHz
     lambda(    2)=  0.0149   gamma=    0.11 GHz
     lambda(    3)=  0.0790   gamma=    1.64 GHz
     lambda(    4)=  0.0040   gamma=    0.14 GHz
     lambda(    5)=  0.0040   gamma=    0.14 GHz
     lambda(    6)=  0.1837   gamma=    9.26 GHz
     lambda(    7)=  1.2165   gamma=  763.39 GHz
     lambda(    8)=  0.0089   gamma=   15.43 GHz
     lambda(    9)=  0.0089   gamma=   15.43 GHz
     lambda(   10)=  0.0295   gamma=   74.66 GHz
     lambda(   11)=  0.0295   gamma=   74.67 GHz
     lambda(   12)=  0.0611   gamma=  173.44 GHz
     lambda(   13)=  0.0419   gamma=  151.71 GHz
     lambda(   14)=  0.0055   gamma=   21.42 GHz
     lambda(   15)=  0.0055   gamma=   21.42 GHz

     Gaussian Broadening:   0.020 Ry, ngauss=   0
     DOS =  5.846181 states/spin/Ry/Unit Cell at Ef= 11.349273 eV
     double delta at Ef =114.788633
     lambda(    1)=  0.0151   gamma=    0.11 GHz
     lambda(    2)=  0.0151   gamma=    0.11 GHz
     lambda(    3)=  0.0620   gamma=    1.33 GHz
     lambda(    4)=  0.0041   gamma=    0.14 GHz
     lambda(    5)=  0.0041   gamma=    0.14 GHz
     lambda(    6)=  0.1494   gamma=    7.77 GHz
     lambda(    7)=  0.9012   gamma=  583.52 GHz
     lambda(    8)=  0.0085   gamma=   15.23 GHz
     lambda(    9)=  0.0085   gamma=   15.23 GHz
     lambda(   10)=  0.0252   gamma=   65.94 GHz
     lambda(   11)=  0.0252   gamma=   65.94 GHz
     lambda(   12)=  0.0474   gamma=  138.91 GHz
     lambda(   13)=  0.0354   gamma=  132.33 GHz
     lambda(   14)=  0.0046   gamma=   18.68 GHz
     lambda(   15)=  0.0046   gamma=   18.68 GHz

     Gaussian Broadening:   0.025 Ry, ngauss=   0
     DOS =  5.784231 states/spin/Ry/Unit Cell at Ef= 11.353944 eV
     double delta at Ef = 98.318682
     lambda(    1)=  0.0150   gamma=    0.11 GHz
     lambda(    2)=  0.0150   gamma=    0.11 GHz
     lambda(    3)=  0.0511   gamma=    1.08 GHz
     lambda(    4)=  0.0042   gamma=    0.15 GHz
     lambda(    5)=  0.0042   gamma=    0.15 GHz
     lambda(    6)=  0.1268   gamma=    6.53 GHz
     lambda(    7)=  0.7220   gamma=  462.56 GHz
     lambda(    8)=  0.0083   gamma=   14.60 GHz
     lambda(    9)=  0.0083   gamma=   14.60 GHz
     lambda(   10)=  0.0217   gamma=   56.07 GHz
     lambda(   11)=  0.0217   gamma=   56.07 GHz
     lambda(   12)=  0.0387   gamma=  112.20 GHz
     lambda(   13)=  0.0317   gamma=  117.38 GHz
     lambda(   14)=  0.0041   gamma=   16.41 GHz
     lambda(   15)=  0.0041   gamma=   16.40 GHz

     Gaussian Broadening:   0.030 Ry, ngauss=   0
     DOS =  5.528528 states/spin/Ry/Unit Cell at Ef= 11.357749 eV
     double delta at Ef = 85.016055
     lambda(    1)=  0.0161   gamma=    0.11 GHz
     lambda(    2)=  0.0161   gamma=    0.11 GHz
     lambda(    3)=  0.0447   gamma=    0.90 GHz
     lambda(    4)=  0.0048   gamma=    0.16 GHz
     lambda(    5)=  0.0048   gamma=    0.16 GHz
     lambda(    6)=  0.1136   gamma=    5.59 GHz
     lambda(    7)=  0.6250   gamma=  382.69 GHz
     lambda(    8)=  0.0091   gamma=   15.30 GHz
     lambda(    9)=  0.0091   gamma=   15.30 GHz
     lambda(   10)=  0.0197   gamma=   48.61 GHz
     lambda(   11)=  0.0197   gamma=   48.61 GHz
     lambda(   12)=  0.0338   gamma=   93.57 GHz
     lambda(   13)=  0.0302   gamma=  106.66 GHz
     lambda(   14)=  0.0041   gamma=   15.48 GHz
     lambda(   15)=  0.0041   gamma=   15.48 GHz

     Gaussian Broadening:   0.035 Ry, ngauss=   0
     DOS =  5.183904 states/spin/Ry/Unit Cell at Ef= 11.361575 eV
     double delta at Ef = 75.369944
     lambda(    1)=  0.0188   gamma=    0.12 GHz
     lambda(    2)=  0.0188   gamma=    0.12 GHz
     lambda(    3)=  0.0411   gamma=    0.78 GHz
     lambda(    4)=  0.0061   gamma=    0.19 GHz
     lambda(    5)=  0.0061   gamma=    0.19 GHz
     lambda(    6)=  0.1072   gamma=    4.95 GHz
     lambda(    7)=  0.5765   gamma=  331.03 GHz
     lambda(    8)=  0.0113   gamma=   17.97 GHz
     lambda(    9)=  0.0113   gamma=   17.97 GHz
     lambda(   10)=  0.0191   gamma=   44.19 GHz
     lambda(   11)=  0.0191   gamma=   44.19 GHz
     lambda(   12)=  0.0314   gamma=   81.56 GHz
     lambda(   13)=  0.0300   gamma=   99.52 GHz
     lambda(   14)=  0.0045   gamma=   15.88 GHz
     lambda(   15)=  0.0045   gamma=   15.88 GHz

     Gaussian Broadening:   0.040 Ry, ngauss=   0
     DOS =  4.842654 states/spin/Ry/Unit Cell at Ef= 11.367156 eV
     double delta at Ef = 68.959806
     lambda(    1)=  0.0230   gamma=    0.14 GHz
     lambda(    2)=  0.0230   gamma=    0.14 GHz
     lambda(    3)=  0.0391   gamma=    0.69 GHz
     lambda(    4)=  0.0086   gamma=    0.25 GHz
     lambda(    5)=  0.0086   gamma=    0.25 GHz
     lambda(    6)=  0.1052   gamma=    4.54 GHz
     lambda(    7)=  0.5546   gamma=  297.46 GHz
     lambda(    8)=  0.0155   gamma=   22.94 GHz
     lambda(    9)=  0.0155   gamma=   22.94 GHz
     lambda(   10)=  0.0198   gamma=   42.79 GHz
     lambda(   11)=  0.0198   gamma=   42.79 GHz
     lambda(   12)=  0.0307   gamma=   74.49 GHz
     lambda(   13)=  0.0308   gamma=   95.35 GHz
     lambda(   14)=  0.0052   gamma=   17.37 GHz
     lambda(   15)=  0.0052   gamma=   17.37 GHz

     Gaussian Broadening:   0.045 Ry, ngauss=   0
     DOS =  4.550599 states/spin/Ry/Unit Cell at Ef= 11.376057 eV
     double delta at Ef = 65.299519
     lambda(    1)=  0.0288   gamma=    0.17 GHz
     lambda(    2)=  0.0288   gamma=    0.17 GHz
     lambda(    3)=  0.0380   gamma=    0.63 GHz
     lambda(    4)=  0.0125   gamma=    0.34 GHz
     lambda(    5)=  0.0125   gamma=    0.34 GHz
     lambda(    6)=  0.1063   gamma=    4.30 GHz
     lambda(    7)=  0.5458   gamma=  275.10 GHz
     lambda(    8)=  0.0219   gamma=   30.51 GHz
     lambda(    9)=  0.0219   gamma=   30.50 GHz
     lambda(   10)=  0.0218   gamma=   44.44 GHz
     lambda(   11)=  0.0218   gamma=   44.44 GHz
     lambda(   12)=  0.0311   gamma=   71.01 GHz
     lambda(   13)=  0.0322   gamma=   93.80 GHz
     lambda(   14)=  0.0063   gamma=   19.82 GHz
     lambda(   15)=  0.0063   gamma=   19.82 GHz

     Gaussian Broadening:   0.050 Ry, ngauss=   0
     DOS =  4.331153 states/spin/Ry/Unit Cell at Ef= 11.388607 eV
     double delta at Ef = 64.045665
     lambda(    1)=  0.0360   gamma=    0.20 GHz
     lambda(    2)=  0.0360   gamma=    0.20 GHz
     lambda(    3)=  0.0376   gamma=    0.60 GHz
     lambda(    4)=  0.0180   gamma=    0.47 GHz
     lambda(    5)=  0.0180   gamma=    0.47 GHz
     lambda(    6)=  0.1092   gamma=    4.21 GHz
     lambda(    7)=  0.5422   gamma=  260.10 GHz
     lambda(    8)=  0.0308   gamma=   40.74 GHz
     lambda(    9)=  0.0308   gamma=   40.74 GHz
     lambda(   10)=  0.0254   gamma=   49.20 GHz
     lambda(   11)=  0.0254   gamma=   49.20 GHz
     lambda(   12)=  0.0324   gamma=   70.28 GHz
     lambda(   13)=  0.0342   gamma=   94.58 GHz
     lambda(   14)=  0.0078   gamma=   23.13 GHz
     lambda(   15)=  0.0078   gamma=   23.12 GHz

     Calculation of q =   -0.0000000  -0.0000000  -0.5000000

     Parallelization info
     --------------------
     sticks:   dense  smooth     PW     G-vecs:    dense   smooth      PW
     Min         488     244     73                19862     7018    1191
     Max         489     245     75                19863     7021    1193
     Sum        2933    1465    441               119177    42115    7153


     Title: 
     BaAuH3 phonon + electron-phonon 4x4x4 q (RTSC A10 · SrAuH3 A-site Ba-varia


     bravais-lattice index     =            0
     lattice parameter (alat)  =       7.5797  a.u.
     unit-cell volume          =     435.4739 (a.u.)^3
     number of atoms/cell      =            5
     number of atomic types    =            3
     number of electrons       =        24.00
     number of Kohn-Sham states=           16
     kinetic-energy cutoff     =      80.0000  Ry
     charge density cutoff     =     640.0000  Ry
     Exchange-correlation= PBE
                           (   1   4   3   4   0   0   0)

     celldm(1)=   7.579729  celldm(2)=   0.000000  celldm(3)=   0.000000
     celldm(4)=   0.000000  celldm(5)=   0.000000  celldm(6)=   0.000000

     crystal axes: (cart. coord. in units of alat)
               a(1) = (   1.000000   0.000000  -0.000000 )  
               a(2) = (   0.000000   1.000002  -0.000000 )  
               a(3) = (  -0.000000  -0.000000   1.000000 )  

     reciprocal axes: (cart. coord. in units 2 pi/alat)
               b(1) = (  1.000000 -0.000000  0.000000 )  
               b(2) = ( -0.000000  0.999998  0.000000 )  
               b(3) = (  0.000000  0.000000  1.000000 )  


     PseudoPot. # 1 for Ba read from file:
     ./pseudo/Ba.pbe-spn-rrkjus_psl.1.0.0.UPF
     MD5 check sum: 03210ee0890048675a516292961e2951
     Pseudo is Ultrasoft + core correction, Zval = 10.0
     Generated using &quot;atomic&quot; code by A. Dal Corso  v.6.2.2
     Using radial grid of 1251 points,  7 beta functions with: 
                l(1) =   0
                l(2) =   0
                l(3) =   0
                l(4) =   1
                l(5) =   1
                l(6) =   2
                l(7) =   2
     Q(r) pseudized with 0 coefficients 


     PseudoPot. # 2 for Au read from file:
     ./pseudo/Au.pbe-n-rrkjus_psl.1.0.0.UPF
     MD5 check sum: 36a5134bc4f0d73a839546df15754897
     Pseudo is Ultrasoft + core correction, Zval = 11.0
     Generated using &quot;atomic&quot; code by A. Dal Corso  v.6.3
     Using radial grid of 1279 points,  6 beta functions with: 
                l(1) =   0
                l(2) =   0
                l(3) =   1
                l(4) =   1
                l(5) =   2
                l(6) =   2
     Q(r) pseudized with 0 coefficients 


     PseudoPot. # 3 for H  read from file:
     ./pseudo/H.pbe-rrkjus_psl.1.0.0.UPF
     MD5 check sum: 9e615844a0e642e0aee8526d0d0f65f7
     Pseudo is Ultrasoft, Zval =  1.0
     Generated using &quot;atomic&quot; code by A. Dal Corso  v.6.3MaX
     Using radial grid of  929 points,  2 beta functions with: 
                l(1) =   0
                l(2) =   0
     Q(r) pseudized with 0 coefficients 


     atomic species   valence    mass     pseudopotential
        Ba            10.00   137.32700     Ba( 1.00)
        Au            11.00   196.96700     Au( 1.00)
        H              1.00     1.00800     H ( 1.00)

     16 Sym. Ops., with inversion, found



   Cartesian axes

     site n.     atom                  positions (alat units)
         1           Ba  tau(   1) = (   0.5000043   0.5000046   0.4999996  )
         2           Au  tau(   2) = (  -0.0000010  -0.0000008   0.0000001  )
         3           H   tau(   3) = (   0.4999989  -0.0000008   0.0000001  )
         4           H   tau(   4) = (  -0.0000010   0.5000004   0.0000001  )
         5           H   tau(   5) = (  -0.0000011  -0.0000008   0.5000001  )

     number of k points=  1458  Methfessel-Paxton smearing, width (Ry)=  0.0200

     Number of k-points >= 100: set verbosity='high' to print them.

     Dense  grid:   119177 G-vectors     FFT dimensions: (  64,  64,  64)

     Smooth grid:    42115 G-vectors     FFT dimensions: (  45,  45,  45)

     Estimated max dynamical RAM per process >      79.49 MB

     Estimated total dynamical RAM >     476.96 MB

     The potential is recalculated from file :
     ./out/_ph0/baauh3.q_3/baauh3.save/charge-density

     Starting wfcs are   17 atomic wfcs

     Band Structure Calculation
     Davidson diagonalization with overlap

     ethr =  4.17E-11,  avg # of iterations = 26.2

     total cpu time spent up to now is     1399.0 secs

     End of band structure calculation

     Number of k-points >= 100: set verbosity='high' to print the bands.

     the Fermi energy is    11.3493 ev

     Writing output data file ./out/_ph0/baauh3.q_3/baauh3.save/
WARNING(FoX)
emitting non-ASCII character. Platform-dependent result!
WARNING(FoX)
emitting non-ASCII character. Platform-dependent result!

     BaAuH3 phonon + electron-phonon 4x4x4 q (RTSC A10 · SrAuH3 A-site Ba-varia

     bravais-lattice index     =            0
     lattice parameter (alat)  =       7.5797  a.u.
     unit-cell volume          =     435.4739 (a.u.)^3
     number of atoms/cell      =            5
     number of atomic types    =            3
     kinetic-energy cut-off    =      80.0000  Ry
     charge density cut-off    =     640.0000  Ry
     convergence threshold     =      1.0E-14
     beta                      =       0.7000
     number of iterations used =            4
     Exchange-correlation= PBE
                           (   1   4   3   4   0   0   0)


     celldm(1)=    7.57973  celldm(2)=    0.00000  celldm(3)=    0.00000
     celldm(4)=    0.00000  celldm(5)=    0.00000  celldm(6)=    0.00000

     crystal axes: (cart. coord. in units of alat)
               a(1) = (  1.0000  0.0000 -0.0000 )  
               a(2) = (  0.0000  1.0000 -0.0000 )  
               a(3) = ( -0.0000 -0.0000  1.0000 )  

     reciprocal axes: (cart. coord. in units 2 pi/alat)
               b(1) = (  1.0000 -0.0000  0.0000 )  
               b(2) = ( -0.0000  1.0000  0.0000 )  
               b(3) = (  0.0000  0.0000  1.0000 )  


     Atoms inside the unit cell: 

     Cartesian axes

     site n.  atom      mass           positions (alat units)
        1     Ba 137.3270   tau(    1) = (    0.50000    0.50000    0.50000  )
        2     Au 196.9670   tau(    2) = (   -0.00000   -0.00000    0.00000  )
        3     H    1.0080   tau(    3) = (    0.50000   -0.00000    0.00000  )
        4     H    1.0080   tau(    4) = (   -0.00000    0.50000    0.00000  )
        5     H    1.0080   tau(    5) = (   -0.00000   -0.00000    0.50000  )

     Computing dynamical matrix for 
                    q = (  -0.0000000  -0.0000000  -0.5000000 )

      9 Sym.Ops. (with q -> -q+G )


     G cutoff =  931.3815  (  19862 G-vectors)     FFT grid: ( 64, 64, 64)
     G cutoff =  465.6908  (   7020 G-vectors)  smooth grid: ( 45, 45, 45)

     number of k points=  1458  Methfessel-Paxton smearing, width (Ry)=  0.0200

     PseudoPot. # 1 for Ba read from file:
     ./pseudo/Ba.pbe-spn-rrkjus_psl.1.0.0.UPF
     MD5 check sum: 03210ee0890048675a516292961e2951
     Pseudo is Ultrasoft + core correction, Zval = 10.0
     Generated using &quot;atomic&quot; code by A. Dal Corso  v.6.2.2
     Using radial grid of 1251 points,  7 beta functions with: 
                l(1) =   0
                l(2) =   0
                l(3) =   0
                l(4) =   1
                l(5) =   1
                l(6) =   2
                l(7) =   2
     Q(r) pseudized with 0 coefficients 


     PseudoPot. # 2 for Au read from file:
     ./pseudo/Au.pbe-n-rrkjus_psl.1.0.0.UPF
     MD5 check sum: 36a5134bc4f0d73a839546df15754897
     Pseudo is Ultrasoft + core correction, Zval = 11.0
     Generated using &quot;atomic&quot; code by A. Dal Corso  v.6.3
     Using radial grid of 1279 points,  6 beta functions with: 
                l(1) =   0
                l(2) =   0
                l(3) =   1
                l(4) =   1
                l(5) =   2
                l(6) =   2
     Q(r) pseudized with 0 coefficients 


     PseudoPot. # 3 for H  read from file:
     ./pseudo/H.pbe-rrkjus_psl.1.0.0.UPF
     MD5 check sum: 9e615844a0e642e0aee8526d0d0f65f7
     Pseudo is Ultrasoft, Zval =  1.0
     Generated using &quot;atomic&quot; code by A. Dal Corso  v.6.3MaX
     Using radial grid of  929 points,  2 beta functions with: 
                l(1) =   0
                l(2) =   0
     Q(r) pseudized with 0 coefficients 



     Atomic displacements:
     There are   15 irreducible representations

     Representation     1      1 modes -  To be done

     Representation     2      1 modes -  To be done

     Representation     3      1 modes -  To be done

     Representation     4      1 modes -  To be done

     Representation     5      1 modes -  To be done

     Representation     6      1 modes -  To be done

     Representation     7      1 modes -  To be done

     Representation     8      1 modes -  To be done

     Representation     9      1 modes -  To be done

     Representation    10      1 modes -  To be done

     Representation    11      1 modes -  To be done

     Representation    12      1 modes -  To be done

     Representation    13      1 modes -  To be done

     Representation    14      1 modes -  To be done

     Representation    15      1 modes -  To be done



     Alpha used in Ewald sum =   2.8000
     PHONON       :     10h43m CPU     11h25m WALL



     Representation #   1 mode #   1

     Self-consistent Calculation

      iter #   1 total cpu time : 41207.1 secs   av.it.:   4.1
      thresh= 1.000E-02 alpha_mix =  0.700 |ddv_scf|^2 =  1.076E-08

      iter #   2 total cpu time : 41334.4 secs   av.it.:  15.4
      thresh= 1.037E-05 alpha_mix =  0.700 |ddv_scf|^2 =  6.625E-10

      iter #   3 total cpu time : 41468.6 secs   av.it.:  16.4
      thresh= 2.574E-06 alpha_mix =  0.700 |ddv_scf|^2 =  7.826E-09

      iter #   4 total cpu time : 41583.7 secs   av.it.:  13.7
      thresh= 8.846E-06 alpha_mix =  0.700 |ddv_scf|^2 =  1.599E-09

      iter #   5 total cpu time : 41699.8 secs   av.it.:  13.9
      thresh= 3.998E-06 alpha_mix =  0.700 |ddv_scf|^2 =  1.082E-11

      iter #   6 total cpu time : 41819.4 secs   av.it.:  14.4
      thresh= 3.290E-07 alpha_mix =  0.700 |ddv_scf|^2 =  8.565E-15

     End of self-consistent calculation

     Convergence has been achieved 


     Representation #   2 mode #   2

     Self-consistent Calculation

      iter #   1 total cpu time : 41913.2 secs   av.it.:   9.0
      thresh= 1.000E-02 alpha_mix =  0.700 |ddv_scf|^2 =  6.171E-05

      iter #   2 total cpu time : 42041.2 secs   av.it.:  15.4
      thresh= 7.856E-04 alpha_mix =  0.700 |ddv_scf|^2 =  6.029E-04

      iter #   3 total cpu time : 42159.7 secs   av.it.:  14.0
      thresh= 2.455E-03 alpha_mix =  0.700 |ddv_scf|^2 =  1.739E-05

      iter #   4 total cpu time : 42278.0 secs   av.it.:  14.2
      thresh= 4.170E-04 alpha_mix =  0.700 |ddv_scf|^2 =  4.686E-06

      iter #   5 total cpu time : 42400.3 secs   av.it.:  14.7
      thresh= 2.165E-04 alpha_mix =  0.700 |ddv_scf|^2 =  1.879E-07

      iter #   6 total cpu time : 42521.4 secs   av.it.:  14.5
      thresh= 4.335E-05 alpha_mix =  0.700 |ddv_scf|^2 =  2.040E-08

      iter #   7 total cpu time : 42634.9 secs   av.it.:  13.5
      thresh= 1.428E-05 alpha_mix =  0.700 |ddv_scf|^2 =  6.092E-10

      iter #   8 total cpu time : 42751.7 secs   av.it.:  13.9
      thresh= 2.468E-06 alpha_mix =  0.700 |ddv_scf|^2 =  5.184E-11

      iter #   9 total cpu time : 42871.9 secs   av.it.:  14.3
      thresh= 7.200E-07 alpha_mix =  0.700 |ddv_scf|^2 =  3.327E-14

      iter #  10 total cpu time : 43005.0 secs   av.it.:  16.2
      thresh= 1.824E-08 alpha_mix =  0.700 |ddv_scf|^2 =  3.643E-14

      iter #  11 total cpu time : 43124.2 secs   av.it.:  14.3
      thresh= 1.909E-08 alpha_mix =  0.700 |ddv_scf|^2 =  1.301E-15

     End of self-consistent calculation

     Convergence has been achieved 


     Representation #   3 mode #   3

     Self-consistent Calculation

      iter #   1 total cpu time : 43181.4 secs   av.it.:   4.1
      thresh= 1.000E-02 alpha_mix =  0.700 |ddv_scf|^2 =  1.076E-08
