
     Program PWSCF v.7.5 starts on  3Jun2026 at  3:20:25 

     This program is part of the open-source Quantum ESPRESSO suite
     for quantum simulation of materials; please cite
         "P. Giannozzi et al., J. Phys.:Condens. Matter 21 395502 (2009);
         "P. Giannozzi et al., J. Phys.:Condens. Matter 29 465901 (2017);
         "P. Giannozzi et al., J. Chem. Phys. 152 154105 (2020);
          URL http://www.quantum-espresso.org", 
     in publications or presentations arising from this work. More details at
     http://www.quantum-espresso.org/quote

     Parallel version (MPI & OpenMP), running on       8 processor cores
     Number of MPI processes:                 4
     Threads/MPI process:                     2

     MPI processes distributed on     1 nodes
     20048 MiB available memory on the printing compute node when the environment starts

     Reading input from scf.in

     Current dimensions of program PWSCF are:
     Max number of different atomic species (ntypx) = 10
     Max number of k-points (npk) =  40000
     Max angular momentum in pseudopotentials (lmaxx) =  4
     file Sc.pbe-spn-rrkjus_psl.1.0.0.UPF: wavefunction(s)  3S 3P renormalized

     R & G space division:  proc/nbgrp/npool/nimage =       4
     Subspace diagonalization in iterative solution of the eigenvalue problem:
     a serial algorithm will be used


     Parallelization info
     --------------------
     sticks:   dense  smooth     PW     G-vecs:    dense   smooth      PW
     Min         321     162     52                12458     4419     862
     Max         322     163     53                12463     4423     867
     Sum        1285     649    211                49839    17681    3459

     Using Slab Decomposition



     bravais-lattice index     =            0
     lattice parameter (alat)  =       5.3880  a.u.
     unit-cell volume          =     182.3899 (a.u.)^3
     number of atoms/cell      =           10
     number of atomic types    =            2
     number of electrons       =        20.00
     number of Kohn-Sham states=           14
     kinetic-energy cutoff     =      80.0000  Ry
     charge density cutoff     =     640.0000  Ry
     scf convergence threshold =      1.0E-12
     mixing beta               =       0.3000
     number of iterations used =            8  plain     mixing
     Exchange-correlation= PBE
                           (   1   4   3   4   0   0   0)

     celldm(1)=   5.387956  celldm(2)=   0.000000  celldm(3)=   0.000000
     celldm(4)=   0.000000  celldm(5)=   0.000000  celldm(6)=   0.000000

     crystal axes: (cart. coord. in units of alat)
               a(1) = (   0.991841   0.008230  -0.127217 )  
               a(2) = (  -0.516238   0.863852  -0.034984 )  
               a(3) = (  -0.317599  -0.193104   1.417191 )  

     reciprocal axes: (cart. coord. in units 2 pi/alat)
               b(1) = (  1.044084  0.636936  0.320772 )  
               b(2) = (  0.011064  1.170779  0.162008 )  
               b(3) = (  0.093997  0.086077  0.738415 )  


     PseudoPot. # 1 for Sc read from file:
     ./pseudo/Sc.pbe-spn-rrkjus_psl.1.0.0.UPF
     MD5 check sum: f739f74c200e509e5c24cbe053202ee5
     Pseudo is Ultrasoft + core correction, Zval = 11.0
     Generated using &quot;atomic&quot; code by A. Dal Corso  v.6.2.2
     Using radial grid of 1173 points,  6 beta functions with: 
                l(1) =   0
                l(2) =   0
                l(3) =   1
                l(4) =   1
                l(5) =   2
                l(6) =   2
     Q(r) pseudized with 0 coefficients 


     PseudoPot. # 2 for H  read from file:
     ./pseudo/H.pbe-rrkjus_psl.1.0.0.UPF
     MD5 check sum: 3f4114867bd07edc7f1424d066fc1888
     Pseudo is Ultrasoft, Zval =  1.0
     Generated using &quot;atomic&quot; code by A. Dal Corso  v.6.3MaX
     Using radial grid of  929 points,  2 beta functions with: 
                l(1) =   0
                l(2) =   0
     Q(r) pseudized with 0 coefficients 


     atomic species   valence    mass     pseudopotential
     Sc               11.00    44.95600     Sc( 1.00)
     H                 1.00     1.00800     H ( 1.00)

     No symmetry found



   Cartesian axes

     site n.     atom                  positions (alat units)
         1        Sc     tau(   1) = (   0.0150874  -0.1114888  -0.1544233  )
         2        H      tau(   2) = (   0.5450960   0.2332327   0.0686982  )
         3        H      tau(   3) = (   0.0936443   0.0541423   0.4338283  )
         4        H      tau(   4) = (   0.0262164   0.5081204  -0.0253779  )
         5        H      tau(   5) = (   0.0886366   0.7487977   0.4499903  )
         6        H      tau(   6) = (   0.0981657   0.3197050   0.5059249  )
         7        H      tau(   7) = (  -0.4230850   0.4881692   0.3827042  )
         8        H      tau(   8) = (   0.1599612  -0.0308201   0.9539515  )
         9        H      tau(   9) = (  -0.3750797   0.5273306   0.7536444  )
        10        H      tau(  10) = (   0.6256905   0.1138965   0.6589841  )

     number of k points=  1540  Methfessel-Paxton smearing, width (Ry)=  0.0200

     Number of k-points >= 100: set verbosity='high' to print them.

     Dense  grid:    49839 G-vectors     FFT dimensions: (  45,  45,  64)

     Smooth grid:    17681 G-vectors     FFT dimensions: (  32,  32,  45)

     Estimated max dynamical RAM per process >     233.71 MB

     Estimated total dynamical RAM >     934.86 MB

     Check: negative core charge=   -0.000002

     Initial potential from superposition of free atoms

     starting charge      19.9974, renormalised to      20.0000
     Starting wfcs are   19 randomized atomic wfcs

     total cpu time spent up to now is       60.5 secs

     per-process dynamical memory:   221.2 Mb

     Self-consistent Calculation

     iteration #  1     ecut=    80.00 Ry     beta= 0.30
     Davidson diagonalization with overlap
     ethr =  1.00E-02,  avg # of iterations =  3.2

     Threshold (ethr) on eigenvalues was too large:
     Diagonalizing with lowered threshold

     Davidson diagonalization with overlap
     ethr =  9.13E-04,  avg # of iterations =  3.1

     total cpu time spent up to now is      624.0 secs

     total energy              =    -107.75829732 Ry
     estimated scf accuracy    <       0.19652923 Ry

     iteration #  2     ecut=    80.00 Ry     beta= 0.30
     Davidson diagonalization with overlap
     ethr =  9.83E-04,  avg # of iterations =  1.2

     total cpu time spent up to now is      808.9 secs

     total energy              =    -107.73918466 Ry
     estimated scf accuracy    <       0.07924258 Ry

     iteration #  3     ecut=    80.00 Ry     beta= 0.30
     Davidson diagonalization with overlap
     ethr =  3.96E-04,  avg # of iterations =  2.0

     total cpu time spent up to now is     1036.9 secs

     total energy              =    -107.74808496 Ry
     estimated scf accuracy    <       0.00403343 Ry

     iteration #  4     ecut=    80.00 Ry     beta= 0.30
     Davidson diagonalization with overlap
     c_bands:  1 eigenvalues not converged
     c_bands:  1 eigenvalues not converged
     c_bands:  1 eigenvalues not converged
     c_bands:  1 eigenvalues not converged
     c_bands:  1 eigenvalues not converged
     ethr =  2.02E-05,  avg # of iterations =  7.5

     total cpu time spent up to now is     1515.8 secs

     total energy              =    -107.75096498 Ry
     estimated scf accuracy    <       0.00058057 Ry

     iteration #  5     ecut=    80.00 Ry     beta= 0.30
     Davidson diagonalization with overlap
     c_bands:  1 eigenvalues not converged
     c_bands:  1 eigenvalues not converged
     c_bands:  1 eigenvalues not converged
     c_bands:  1 eigenvalues not converged
     c_bands:  1 eigenvalues not converged
     c_bands:  1 eigenvalues not converged
     c_bands:  1 eigenvalues not converged
     c_bands:  1 eigenvalues not converged
     c_bands:  1 eigenvalues not converged
     ethr =  2.90E-06,  avg # of iterations =  6.9

     total cpu time spent up to now is     1990.1 secs

     total energy              =    -107.75113110 Ry
     estimated scf accuracy    <       0.00027772 Ry

     iteration #  6     ecut=    80.00 Ry     beta= 0.30
     Davidson diagonalization with overlap
     ethr =  1.39E-06,  avg # of iterations =  2.6

     total cpu time spent up to now is     2248.3 secs

     total energy              =    -107.75118278 Ry
     estimated scf accuracy    <       0.00001937 Ry

     iteration #  7     ecut=    80.00 Ry     beta= 0.30
     Davidson diagonalization with overlap
     ethr =  9.69E-08,  avg # of iterations =  5.1

     total cpu time spent up to now is     2619.6 secs

     total energy              =    -107.75118367 Ry
     estimated scf accuracy    <       0.00001672 Ry

     iteration #  8     ecut=    80.00 Ry     beta= 0.30
     Davidson diagonalization with overlap
     ethr =  8.36E-08,  avg # of iterations =  4.5

     total cpu time spent up to now is     2963.4 secs

     total energy              =    -107.75118848 Ry
     estimated scf accuracy    <       0.00000486 Ry

     iteration #  9     ecut=    80.00 Ry     beta= 0.30
     Davidson diagonalization with overlap
     ethr =  2.43E-08,  avg # of iterations =  2.1

     total cpu time spent up to now is     3196.8 secs

     total energy              =    -107.75118938 Ry
     estimated scf accuracy    <       0.00000010 Ry

     iteration # 10     ecut=    80.00 Ry     beta= 0.30
     Davidson diagonalization with overlap
     ethr =  5.08E-10,  avg # of iterations =  8.2

     total cpu time spent up to now is     3800.1 secs

     total energy              =    -107.75118970 Ry
     estimated scf accuracy    <       0.00000042 Ry

     iteration # 11     ecut=    80.00 Ry     beta= 0.30
     Davidson diagonalization with overlap
     ethr =  5.08E-10,  avg # of iterations =  5.1

     total cpu time spent up to now is     4193.7 secs

     total energy              =    -107.75118980 Ry
     estimated scf accuracy    <          2.3E-09 Ry

     iteration # 12     ecut=    80.00 Ry     beta= 0.30
     Davidson diagonalization with overlap
     ethr =  1.17E-11,  avg # of iterations =  7.3

     total cpu time spent up to now is     4723.0 secs

     total energy              =    -107.75118981 Ry
     estimated scf accuracy    <       0.00000001 Ry

     iteration # 13     ecut=    80.00 Ry     beta= 0.30
     Davidson diagonalization with overlap
     ethr =  1.17E-11,  avg # of iterations =  2.8

     total cpu time spent up to now is     4991.3 secs

     total energy              =    -107.75118981 Ry
     estimated scf accuracy    <          2.5E-09 Ry

     iteration # 14     ecut=    80.00 Ry     beta= 0.30
     Davidson diagonalization with overlap
     ethr =  1.17E-11,  avg # of iterations =  2.3

     total cpu time spent up to now is     5218.9 secs

     total energy              =    -107.75118981 Ry
     estimated scf accuracy    <          7.1E-10 Ry

     iteration # 15     ecut=    80.00 Ry     beta= 0.30
     Davidson diagonalization with overlap
     ethr =  3.53E-12,  avg # of iterations =  5.1

     total cpu time spent up to now is     5566.9 secs

     total energy              =    -107.75118981 Ry
     estimated scf accuracy    <          1.3E-11 Ry

     iteration # 16     ecut=    80.00 Ry     beta= 0.30
     Davidson diagonalization with overlap
     ethr =  1.00E-13,  avg # of iterations =  5.4

     total cpu time spent up to now is     5960.6 secs

     total energy              =    -107.75118981 Ry
     estimated scf accuracy    <          8.9E-12 Ry

     iteration # 17     ecut=    80.00 Ry     beta= 0.30
     Davidson diagonalization with overlap
     ethr =  1.00E-13,  avg # of iterations =  1.1

     total cpu time spent up to now is     6136.4 secs

     total energy              =    -107.75118981 Ry
     estimated scf accuracy    <          6.3E-12 Ry

     iteration # 18     ecut=    80.00 Ry     beta= 0.30
     Davidson diagonalization with overlap
     ethr =  1.00E-13,  avg # of iterations =  1.1

     total cpu time spent up to now is     6314.5 secs

     total energy              =    -107.75118981 Ry
     estimated scf accuracy    <          1.4E-12 Ry

     iteration # 19     ecut=    80.00 Ry     beta= 0.30
     Davidson diagonalization with overlap
     ethr =  1.00E-13,  avg # of iterations =  1.2

     total cpu time spent up to now is     6491.6 secs

     End of self-consistent calculation

     Number of k-points >= 100: set verbosity='high' to print the bands.

     the Fermi energy is    14.3553 ev

!    total energy              =    -107.75118981 Ry
     estimated scf accuracy    <          3.2E-13 Ry
     smearing contrib. (-TS)   =       0.00004161 Ry
     internal energy E=F+TS    =    -107.75123142 Ry

     The total energy is F=E-TS. E is the sum of the following terms:
     one-electron contribution =     -15.53271830 Ry
     hartree contribution      =      18.42028785 Ry
     xc contribution           =     -25.32017886 Ry
     ewald contribution        =     -85.31862210 Ry

     convergence has been achieved in  19 iterations

     Forces acting on atoms (cartesian axes, Ry/au):

     atom    1 type  1   force =    -0.00000366    0.00119225    0.00004301
     atom    2 type  2   force =     0.00023434   -0.00040640   -0.00014824
     atom    3 type  2   force =     0.00000051   -0.00014941    0.00000304
     atom    4 type  2   force =     0.00010682   -0.00037699    0.00006370
     atom    5 type  2   force =    -0.00007915    0.00016185    0.00010781
     atom    6 type  2   force =     0.00002895   -0.00022853   -0.00020330
     atom    7 type  2   force =     0.00002615    0.00046416   -0.00000560
     atom    8 type  2   force =    -0.00015894   -0.00037803    0.00019364
     atom    9 type  2   force =     0.00003740    0.00004127    0.00000407
     atom   10 type  2   force =    -0.00019242   -0.00032017   -0.00005815

     Total force =     0.001597     Total SCF correction =     0.000001


     Computing stress (Cartesian axis) and pressure

          total   stress  (Ry/bohr**3)                   (kbar)     P=     1501.33
   0.01021446   0.00001292  -0.00002010         1502.60        1.90       -2.96
   0.00001292   0.01020473  -0.00001102            1.90     1501.17       -1.62
  -0.00002010  -0.00001102   0.01019831           -2.96       -1.62     1500.22


     Writing all to output data dir ./out/sch9.save/ :
     XML data file, charge density, pseudopotentials, collected wavefunctions

     init_run     :    119.93s CPU     60.45s WALL (       1 calls)
     electrons    :  12831.35s CPU   6431.07s WALL (       1 calls)
     forces       :     58.63s CPU     29.37s WALL (       1 calls)
     stress       :      6.15s CPU      3.10s WALL (       1 calls)

     Called by init_run:
     wfcinit      :    119.63s CPU     60.18s WALL (       1 calls)
     potinit      :      0.08s CPU      0.07s WALL (       1 calls)
     hinit0       :      0.14s CPU      0.13s WALL (       1 calls)

     Called by electrons:
     c_bands      :  11439.08s CPU   5732.78s WALL (      20 calls)
     sum_band     :   1390.30s CPU    697.18s WALL (      20 calls)
     v_of_rho     :      0.97s CPU      0.49s WALL (      20 calls)
     newd         :      0.65s CPU      0.45s WALL (      20 calls)
     mix_rho      :      0.26s CPU      0.14s WALL (      20 calls)

     Called by c_bands:
     init_us_2    :      7.46s CPU      6.19s WALL (   66220 calls)
     cegterg      :  11411.32s CPU   5716.43s WALL (   30800 calls)

     Called by *egterg:
     cdiaghg      :     17.12s CPU     15.19s WALL (  149254 calls)
     h_psi        :   8374.67s CPU   4199.65s WALL (  152334 calls)
     s_psi        :    693.14s CPU    347.76s WALL (  152334 calls)
     g_psi        :      1.43s CPU      1.37s WALL (  119994 calls)

     Called by h_psi:
     h_psi:calbec :    856.10s CPU    404.82s WALL (  152334 calls)
     vloc_psi     :   7116.63s CPU   3598.16s WALL (  152334 calls)
                                        0.00s GPU  (  152334 calls)
     add_vuspsi   :     47.26s CPU     24.63s WALL (  152334 calls)

     General routines
     calbec       :   1078.85s CPU    512.72s WALL (  209314 calls)
     fft          :      1.23s CPU      0.63s WALL (     284 calls)
     ffts         :      0.21s CPU      0.13s WALL (      40 calls)
     fftw         :   7514.56s CPU   3798.51s WALL ( 2989284 calls)
     interpolate  :      0.11s CPU      0.08s WALL (      20 calls)

     Parallel routines

     PWSCF        :      3h36m CPU      1h48m WALL


   This run was terminated on:   5: 9:10   3Jun2026            

=------------------------------------------------------------------------------=
   JOB DONE.
=------------------------------------------------------------------------------=
