
     Program PWSCF v.7.5 starts on 27May2026 at  7:38:26 

     This program is part of the open-source Quantum ESPRESSO suite
     for quantum simulation of materials; please cite
         "P. Giannozzi et al., J. Phys.:Condens. Matter 21 395502 (2009);
         "P. Giannozzi et al., J. Phys.:Condens. Matter 29 465901 (2017);
         "P. Giannozzi et al., J. Chem. Phys. 152 154105 (2020);
          URL http://www.quantum-espresso.org", 
     in publications or presentations arising from this work. More details at
     http://www.quantum-espresso.org/quote

     Parallel version (MPI & OpenMP), running on       8 processor cores
     Number of MPI processes:                 8
     Threads/MPI process:                     1

     MPI processes distributed on     1 nodes
     294853 MiB available memory on the printing compute node when the environment starts

     Reading input from scf.in

     Current dimensions of program PWSCF are:
     Max number of different atomic species (ntypx) = 10
     Max number of k-points (npk) =  40000
     Max angular momentum in pseudopotentials (lmaxx) =  4
     file Nb.pbe-spn-rrkjus_psl.1.0.0.UPF: wavefunction(s)  4S 4P renormalized

     R & G space division:  proc/nbgrp/npool/nimage =       8
     Subspace diagonalization in iterative solution of the eigenvalue problem:
     a serial algorithm will be used


     Parallelization info
     --------------------
     sticks:   dense  smooth     PW     G-vecs:    dense   smooth      PW
     Min         765     305     85                44987    11380    1701
     Max         766     307     86                44988    11382    1704
     Sum        6125    2449    681               359901    91047   13613

     Using Slab Decomposition



     bravais-lattice index     =            1
     lattice parameter (alat)  =       9.8020  a.u.
     unit-cell volume          =     941.7684 (a.u.)^3
     number of atoms/cell      =            8
     number of atomic types    =            2
     number of electrons       =        84.00
     number of Kohn-Sham states=           50
     kinetic-energy cutoff     =      80.0000  Ry
     charge density cutoff     =     800.0000  Ry
     scf convergence threshold =      1.0E-10
     mixing beta               =       0.3000
     number of iterations used =            8  plain     mixing
     Exchange-correlation= PBE
                           (   1   4   3   4   0   0   0)

     celldm(1)=   9.802000  celldm(2)=   0.000000  celldm(3)=   0.000000
     celldm(4)=   0.000000  celldm(5)=   0.000000  celldm(6)=   0.000000

     crystal axes: (cart. coord. in units of alat)
               a(1) = (   1.000000   0.000000   0.000000 )  
               a(2) = (   0.000000   1.000000   0.000000 )  
               a(3) = (   0.000000   0.000000   1.000000 )  

     reciprocal axes: (cart. coord. in units 2 pi/alat)
               b(1) = (  1.000000  0.000000  0.000000 )  
               b(2) = (  0.000000  1.000000  0.000000 )  
               b(3) = (  0.000000  0.000000  1.000000 )  


     PseudoPot. # 1 for Nb read from file:
     ./pseudo/Nb.pbe-spn-rrkjus_psl.1.0.0.UPF
     MD5 check sum: 6ee677a9f002bd3e3657f443f129faad
     Pseudo is Ultrasoft + core correction, Zval = 13.0
     Generated using &quot;atomic&quot; code by A. Dal Corso  v.6.2.2
     Using radial grid of 1227 points,  6 beta functions with: 
                l(1) =   0
                l(2) =   0
                l(3) =   1
                l(4) =   1
                l(5) =   2
                l(6) =   2
     Q(r) pseudized with 0 coefficients 


     PseudoPot. # 2 for Al read from file:
     ./pseudo/Al.pbe-n-rrkjus_psl.1.0.0.UPF
     MD5 check sum: bbe9f3f15d9b3b5ab9a58e4859ebdbfe
     Pseudo is Ultrasoft + core correction, Zval =  3.0
     Generated using &quot;atomic&quot; code by A. Dal Corso  v.6.3
     Using radial grid of 1135 points,  6 beta functions with: 
                l(1) =   0
                l(2) =   0
                l(3) =   1
                l(4) =   1
                l(5) =   2
                l(6) =   2
     Q(r) pseudized with 0 coefficients 


     atomic species   valence    mass     pseudopotential
     Nb               13.00    92.90600     Nb( 1.00)
     Al                3.00    26.98200     Al( 1.00)

     48 Sym. Ops., with inversion, found (24 have fractional translation)


                                    s                        frac. trans.

      isym =  1     identity                                     

 cryst.   s( 1) = (     1          0          0      )
                  (     0          1          0      )
                  (     0          0          1      )

 cart.    s( 1) = (  1.0000000  0.0000000  0.0000000 )
                  (  0.0000000  1.0000000  0.0000000 )
                  (  0.0000000  0.0000000  1.0000000 )


      isym =  2     180 deg rotation - cart. axis [0,0,1]        

 cryst.   s( 2) = (    -1          0          0      )
                  (     0         -1          0      )
                  (     0          0          1      )

 cart.    s( 2) = ( -1.0000000  0.0000000  0.0000000 )
                  (  0.0000000 -1.0000000  0.0000000 )
                  (  0.0000000  0.0000000  1.0000000 )


      isym =  3     180 deg rotation - cart. axis [0,1,0]        

 cryst.   s( 3) = (    -1          0          0      )
                  (     0          1          0      )
                  (     0          0         -1      )

 cart.    s( 3) = ( -1.0000000  0.0000000  0.0000000 )
                  (  0.0000000  1.0000000  0.0000000 )
                  (  0.0000000  0.0000000 -1.0000000 )


      isym =  4     180 deg rotation - cart. axis [1,0,0]        

 cryst.   s( 4) = (     1          0          0      )
                  (     0         -1          0      )
                  (     0          0         -1      )

 cart.    s( 4) = (  1.0000000  0.0000000  0.0000000 )
                  (  0.0000000 -1.0000000  0.0000000 )
                  (  0.0000000  0.0000000 -1.0000000 )


      isym =  5     180 deg rotation - cart. axis [1,1,0]        

 cryst.   s( 5) = (     0          1          0      )    f =( -0.5000000 )
                  (     1          0          0      )       ( -0.5000000 )
                  (     0          0         -1      )       (  0.5000000 )

 cart.    s( 5) = (  0.0000000  1.0000000  0.0000000 )    f =( -0.5000000 )
                  (  1.0000000  0.0000000  0.0000000 )       ( -0.5000000 )
                  (  0.0000000  0.0000000 -1.0000000 )       (  0.5000000 )


      isym =  6     180 deg rotation - cart. axis [1,-1,0]       

 cryst.   s( 6) = (     0         -1          0      )    f =(  0.5000000 )
                  (    -1          0          0      )       (  0.5000000 )
                  (     0          0         -1      )       (  0.5000000 )

 cart.    s( 6) = (  0.0000000 -1.0000000  0.0000000 )    f =(  0.5000000 )
                  ( -1.0000000  0.0000000  0.0000000 )       (  0.5000000 )
                  (  0.0000000  0.0000000 -1.0000000 )       (  0.5000000 )


      isym =  7      90 deg rotation - cart. axis [0,0,-1]       

 cryst.   s( 7) = (     0         -1          0      )    f =( -0.5000000 )
                  (     1          0          0      )       (  0.5000000 )
                  (     0          0          1      )       ( -0.5000000 )

 cart.    s( 7) = (  0.0000000  1.0000000  0.0000000 )    f =( -0.5000000 )
                  ( -1.0000000  0.0000000  0.0000000 )       (  0.5000000 )
                  (  0.0000000  0.0000000  1.0000000 )       ( -0.5000000 )


      isym =  8      90 deg rotation - cart. axis [0,0,1]        

 cryst.   s( 8) = (     0          1          0      )    f =(  0.5000000 )
                  (    -1          0          0      )       ( -0.5000000 )
                  (     0          0          1      )       ( -0.5000000 )

 cart.    s( 8) = (  0.0000000 -1.0000000  0.0000000 )    f =(  0.5000000 )
                  (  1.0000000  0.0000000  0.0000000 )       ( -0.5000000 )
                  (  0.0000000  0.0000000  1.0000000 )       ( -0.5000000 )


      isym =  9     180 deg rotation - cart. axis [1,0,1]        

 cryst.   s( 9) = (     0          0          1      )    f =( -0.5000000 )
                  (     0         -1          0      )       (  0.5000000 )
                  (     1          0          0      )       ( -0.5000000 )

 cart.    s( 9) = (  0.0000000  0.0000000  1.0000000 )    f =( -0.5000000 )
                  (  0.0000000 -1.0000000  0.0000000 )       (  0.5000000 )
                  (  1.0000000  0.0000000  0.0000000 )       ( -0.5000000 )


      isym = 10     180 deg rotation - cart. axis [-1,0,1]       

 cryst.   s(10) = (     0          0         -1      )    f =(  0.5000000 )
                  (     0         -1          0      )       (  0.5000000 )
                  (    -1          0          0      )       (  0.5000000 )

 cart.    s(10) = (  0.0000000  0.0000000 -1.0000000 )    f =(  0.5000000 )
                  (  0.0000000 -1.0000000  0.0000000 )       (  0.5000000 )
                  ( -1.0000000  0.0000000  0.0000000 )       (  0.5000000 )


      isym = 11      90 deg rotation - cart. axis [0,1,0]        

 cryst.   s(11) = (     0          0         -1      )    f =( -0.5000000 )
                  (     0          1          0      )       ( -0.5000000 )
                  (     1          0          0      )       (  0.5000000 )

 cart.    s(11) = (  0.0000000  0.0000000  1.0000000 )    f =( -0.5000000 )
                  (  0.0000000  1.0000000  0.0000000 )       ( -0.5000000 )
                  ( -1.0000000  0.0000000  0.0000000 )       (  0.5000000 )


      isym = 12      90 deg rotation - cart. axis [0,-1,0]       

 cryst.   s(12) = (     0          0          1      )    f =(  0.5000000 )
                  (     0          1          0      )       ( -0.5000000 )
                  (    -1          0          0      )       ( -0.5000000 )

 cart.    s(12) = (  0.0000000  0.0000000 -1.0000000 )    f =(  0.5000000 )
                  (  0.0000000  1.0000000  0.0000000 )       ( -0.5000000 )
                  (  1.0000000  0.0000000  0.0000000 )       ( -0.5000000 )


      isym = 13     180 deg rotation - cart. axis [0,1,1]        

 cryst.   s(13) = (    -1          0          0      )    f =(  0.5000000 )
                  (     0          0          1      )       ( -0.5000000 )
                  (     0          1          0      )       ( -0.5000000 )

 cart.    s(13) = ( -1.0000000  0.0000000  0.0000000 )    f =(  0.5000000 )
                  (  0.0000000  0.0000000  1.0000000 )       ( -0.5000000 )
                  (  0.0000000  1.0000000  0.0000000 )       ( -0.5000000 )


      isym = 14     180 deg rotation - cart. axis [0,1,-1]       

 cryst.   s(14) = (    -1          0          0      )    f =(  0.5000000 )
                  (     0          0         -1      )       (  0.5000000 )
                  (     0         -1          0      )       (  0.5000000 )

 cart.    s(14) = ( -1.0000000  0.0000000  0.0000000 )    f =(  0.5000000 )
                  (  0.0000000  0.0000000 -1.0000000 )       (  0.5000000 )
                  (  0.0000000 -1.0000000  0.0000000 )       (  0.5000000 )


      isym = 15      90 deg rotation - cart. axis [-1,0,0]       

 cryst.   s(15) = (     1          0          0      )    f =( -0.5000000 )
                  (     0          0         -1      )       ( -0.5000000 )
                  (     0          1          0      )       (  0.5000000 )

 cart.    s(15) = (  1.0000000  0.0000000  0.0000000 )    f =( -0.5000000 )
                  (  0.0000000  0.0000000  1.0000000 )       ( -0.5000000 )
                  (  0.0000000 -1.0000000  0.0000000 )       (  0.5000000 )


      isym = 16      90 deg rotation - cart. axis [1,0,0]        

 cryst.   s(16) = (     1          0          0      )    f =( -0.5000000 )
                  (     0          0          1      )       (  0.5000000 )
                  (     0         -1          0      )       ( -0.5000000 )

 cart.    s(16) = (  1.0000000  0.0000000  0.0000000 )    f =( -0.5000000 )
                  (  0.0000000  0.0000000 -1.0000000 )       (  0.5000000 )
                  (  0.0000000  1.0000000  0.0000000 )       ( -0.5000000 )


      isym = 17     120 deg rotation - cart. axis [-1,-1,-1]     

 cryst.   s(17) = (     0          0          1      )
                  (     1          0          0      )
                  (     0          1          0      )

 cart.    s(17) = (  0.0000000  1.0000000  0.0000000 )
                  (  0.0000000  0.0000000  1.0000000 )
                  (  1.0000000  0.0000000  0.0000000 )


      isym = 18     120 deg rotation - cart. axis [-1,1,1]       

 cryst.   s(18) = (     0          0         -1      )
                  (    -1          0          0      )
                  (     0          1          0      )

 cart.    s(18) = (  0.0000000 -1.0000000  0.0000000 )
                  (  0.0000000  0.0000000  1.0000000 )
                  ( -1.0000000  0.0000000  0.0000000 )


      isym = 19     120 deg rotation - cart. axis [1,1,-1]       

 cryst.   s(19) = (     0          0         -1      )
                  (     1          0          0      )
                  (     0         -1          0      )

 cart.    s(19) = (  0.0000000  1.0000000  0.0000000 )
                  (  0.0000000  0.0000000 -1.0000000 )
                  ( -1.0000000  0.0000000  0.0000000 )


      isym = 20     120 deg rotation - cart. axis [1,-1,1]       

 cryst.   s(20) = (     0          0          1      )
                  (    -1          0          0      )
                  (     0         -1          0      )

 cart.    s(20) = (  0.0000000 -1.0000000  0.0000000 )
                  (  0.0000000  0.0000000 -1.0000000 )
                  (  1.0000000  0.0000000  0.0000000 )


      isym = 21     120 deg rotation - cart. axis [1,1,1]        

 cryst.   s(21) = (     0          1          0      )
                  (     0          0          1      )
                  (     1          0          0      )

 cart.    s(21) = (  0.0000000  0.0000000  1.0000000 )
                  (  1.0000000  0.0000000  0.0000000 )
                  (  0.0000000  1.0000000  0.0000000 )


      isym = 22     120 deg rotation - cart. axis [-1,1,-1]      

 cryst.   s(22) = (     0         -1          0      )
                  (     0          0         -1      )
                  (     1          0          0      )

 cart.    s(22) = (  0.0000000  0.0000000  1.0000000 )
                  ( -1.0000000  0.0000000  0.0000000 )
                  (  0.0000000 -1.0000000  0.0000000 )


      isym = 23     120 deg rotation - cart. axis [1,-1,-1]      

 cryst.   s(23) = (     0         -1          0      )
                  (     0          0          1      )
                  (    -1          0          0      )

 cart.    s(23) = (  0.0000000  0.0000000 -1.0000000 )
                  ( -1.0000000  0.0000000  0.0000000 )
                  (  0.0000000  1.0000000  0.0000000 )


      isym = 24     120 deg rotation - cart. axis [-1,-1,1]      

 cryst.   s(24) = (     0          1          0      )
                  (     0          0         -1      )
                  (    -1          0          0      )

 cart.    s(24) = (  0.0000000  0.0000000 -1.0000000 )
                  (  1.0000000  0.0000000  0.0000000 )
                  (  0.0000000 -1.0000000  0.0000000 )


      isym = 25     inversion                                    

 cryst.   s(25) = (    -1          0          0      )
                  (     0         -1          0      )
                  (     0          0         -1      )

 cart.    s(25) = ( -1.0000000  0.0000000  0.0000000 )
                  (  0.0000000 -1.0000000  0.0000000 )
                  (  0.0000000  0.0000000 -1.0000000 )


      isym = 26     inv. 180 deg rotation - cart. axis [0,0,1]   

 cryst.   s(26) = (     1          0          0      )
                  (     0          1          0      )
                  (     0          0         -1      )

 cart.    s(26) = (  1.0000000  0.0000000  0.0000000 )
                  (  0.0000000  1.0000000  0.0000000 )
                  (  0.0000000  0.0000000 -1.0000000 )


      isym = 27     inv. 180 deg rotation - cart. axis [0,1,0]   

 cryst.   s(27) = (     1          0          0      )
                  (     0         -1          0      )
                  (     0          0          1      )

 cart.    s(27) = (  1.0000000  0.0000000  0.0000000 )
                  (  0.0000000 -1.0000000  0.0000000 )
                  (  0.0000000  0.0000000  1.0000000 )


      isym = 28     inv. 180 deg rotation - cart. axis [1,0,0]   

 cryst.   s(28) = (    -1          0          0      )
                  (     0          1          0      )
                  (     0          0          1      )

 cart.    s(28) = ( -1.0000000  0.0000000  0.0000000 )
                  (  0.0000000  1.0000000  0.0000000 )
                  (  0.0000000  0.0000000  1.0000000 )


      isym = 29     inv. 180 deg rotation - cart. axis [1,1,0]   

 cryst.   s(29) = (     0         -1          0      )    f =(  0.5000000 )
                  (    -1          0          0      )       (  0.5000000 )
                  (     0          0          1      )       ( -0.5000000 )

 cart.    s(29) = (  0.0000000 -1.0000000  0.0000000 )    f =(  0.5000000 )
                  ( -1.0000000  0.0000000  0.0000000 )       (  0.5000000 )
                  (  0.0000000  0.0000000  1.0000000 )       ( -0.5000000 )


      isym = 30     inv. 180 deg rotation - cart. axis [1,-1,0]  

 cryst.   s(30) = (     0          1          0      )    f =( -0.5000000 )
                  (     1          0          0      )       ( -0.5000000 )
                  (     0          0          1      )       ( -0.5000000 )

 cart.    s(30) = (  0.0000000  1.0000000  0.0000000 )    f =( -0.5000000 )
                  (  1.0000000  0.0000000  0.0000000 )       ( -0.5000000 )
                  (  0.0000000  0.0000000  1.0000000 )       ( -0.5000000 )


      isym = 31     inv.  90 deg rotation - cart. axis [0,0,-1]  

 cryst.   s(31) = (     0          1          0      )    f =(  0.5000000 )
                  (    -1          0          0      )       ( -0.5000000 )
                  (     0          0         -1      )       (  0.5000000 )

 cart.    s(31) = (  0.0000000 -1.0000000  0.0000000 )    f =(  0.5000000 )
                  (  1.0000000  0.0000000  0.0000000 )       ( -0.5000000 )
                  (  0.0000000  0.0000000 -1.0000000 )       (  0.5000000 )


      isym = 32     inv.  90 deg rotation - cart. axis [0,0,1]   

 cryst.   s(32) = (     0         -1          0      )    f =( -0.5000000 )
                  (     1          0          0      )       (  0.5000000 )
                  (     0          0         -1      )       (  0.5000000 )

 cart.    s(32) = (  0.0000000  1.0000000  0.0000000 )    f =( -0.5000000 )
                  ( -1.0000000  0.0000000  0.0000000 )       (  0.5000000 )
                  (  0.0000000  0.0000000 -1.0000000 )       (  0.5000000 )


      isym = 33     inv. 180 deg rotation - cart. axis [1,0,1]   

 cryst.   s(33) = (     0          0         -1      )    f =(  0.5000000 )
                  (     0          1          0      )       ( -0.5000000 )
                  (    -1          0          0      )       (  0.5000000 )

 cart.    s(33) = (  0.0000000  0.0000000 -1.0000000 )    f =(  0.5000000 )
                  (  0.0000000  1.0000000  0.0000000 )       ( -0.5000000 )
                  ( -1.0000000  0.0000000  0.0000000 )       (  0.5000000 )


      isym = 34     inv. 180 deg rotation - cart. axis [-1,0,1]  

 cryst.   s(34) = (     0          0          1      )    f =( -0.5000000 )
                  (     0          1          0      )       ( -0.5000000 )
                  (     1          0          0      )       ( -0.5000000 )

 cart.    s(34) = (  0.0000000  0.0000000  1.0000000 )    f =( -0.5000000 )
                  (  0.0000000  1.0000000  0.0000000 )       ( -0.5000000 )
                  (  1.0000000  0.0000000  0.0000000 )       ( -0.5000000 )


      isym = 35     inv.  90 deg rotation - cart. axis [0,1,0]   

 cryst.   s(35) = (     0          0          1      )    f =(  0.5000000 )
                  (     0         -1          0      )       (  0.5000000 )
                  (    -1          0          0      )       ( -0.5000000 )

 cart.    s(35) = (  0.0000000  0.0000000 -1.0000000 )    f =(  0.5000000 )
                  (  0.0000000 -1.0000000  0.0000000 )       (  0.5000000 )
                  (  1.0000000  0.0000000  0.0000000 )       ( -0.5000000 )


      isym = 36     inv.  90 deg rotation - cart. axis [0,-1,0]  

 cryst.   s(36) = (     0          0         -1      )    f =( -0.5000000 )
                  (     0         -1          0      )       (  0.5000000 )
                  (     1          0          0      )       (  0.5000000 )

 cart.    s(36) = (  0.0000000  0.0000000  1.0000000 )    f =( -0.5000000 )
                  (  0.0000000 -1.0000000  0.0000000 )       (  0.5000000 )
                  ( -1.0000000  0.0000000  0.0000000 )       (  0.5000000 )


      isym = 37     inv. 180 deg rotation - cart. axis [0,1,1]   

 cryst.   s(37) = (     1          0          0      )    f =( -0.5000000 )
                  (     0          0         -1      )       (  0.5000000 )
                  (     0         -1          0      )       (  0.5000000 )

 cart.    s(37) = (  1.0000000  0.0000000  0.0000000 )    f =( -0.5000000 )
                  (  0.0000000  0.0000000 -1.0000000 )       (  0.5000000 )
                  (  0.0000000 -1.0000000  0.0000000 )       (  0.5000000 )


      isym = 38     inv. 180 deg rotation - cart. axis [0,1,-1]  

 cryst.   s(38) = (     1          0          0      )    f =( -0.5000000 )
                  (     0          0          1      )       ( -0.5000000 )
                  (     0          1          0      )       ( -0.5000000 )

 cart.    s(38) = (  1.0000000  0.0000000  0.0000000 )    f =( -0.5000000 )
                  (  0.0000000  0.0000000  1.0000000 )       ( -0.5000000 )
                  (  0.0000000  1.0000000  0.0000000 )       ( -0.5000000 )


      isym = 39     inv.  90 deg rotation - cart. axis [-1,0,0]  

 cryst.   s(39) = (    -1          0          0      )    f =(  0.5000000 )
                  (     0          0          1      )       (  0.5000000 )
                  (     0         -1          0      )       ( -0.5000000 )

 cart.    s(39) = ( -1.0000000  0.0000000  0.0000000 )    f =(  0.5000000 )
                  (  0.0000000  0.0000000 -1.0000000 )       (  0.5000000 )
                  (  0.0000000  1.0000000  0.0000000 )       ( -0.5000000 )


      isym = 40     inv.  90 deg rotation - cart. axis [1,0,0]   

 cryst.   s(40) = (    -1          0          0      )    f =(  0.5000000 )
                  (     0          0         -1      )       ( -0.5000000 )
                  (     0          1          0      )       (  0.5000000 )

 cart.    s(40) = ( -1.0000000  0.0000000  0.0000000 )    f =(  0.5000000 )
                  (  0.0000000  0.0000000  1.0000000 )       ( -0.5000000 )
                  (  0.0000000 -1.0000000  0.0000000 )       (  0.5000000 )


      isym = 41     inv. 120 deg rotation - cart. axis [-1,-1,-1]

 cryst.   s(41) = (     0          0         -1      )
                  (    -1          0          0      )
                  (     0         -1          0      )

 cart.    s(41) = (  0.0000000 -1.0000000  0.0000000 )
                  (  0.0000000  0.0000000 -1.0000000 )
                  ( -1.0000000  0.0000000  0.0000000 )


      isym = 42     inv. 120 deg rotation - cart. axis [-1,1,1]  

 cryst.   s(42) = (     0          0          1      )
                  (     1          0          0      )
                  (     0         -1          0      )

 cart.    s(42) = (  0.0000000  1.0000000  0.0000000 )
                  (  0.0000000  0.0000000 -1.0000000 )
                  (  1.0000000  0.0000000  0.0000000 )


      isym = 43     inv. 120 deg rotation - cart. axis [1,1,-1]  

 cryst.   s(43) = (     0          0          1      )
                  (    -1          0          0      )
                  (     0          1          0      )

 cart.    s(43) = (  0.0000000 -1.0000000  0.0000000 )
                  (  0.0000000  0.0000000  1.0000000 )
                  (  1.0000000  0.0000000  0.0000000 )


      isym = 44     inv. 120 deg rotation - cart. axis [1,-1,1]  

 cryst.   s(44) = (     0          0         -1      )
                  (     1          0          0      )
                  (     0          1          0      )

 cart.    s(44) = (  0.0000000  1.0000000  0.0000000 )
                  (  0.0000000  0.0000000  1.0000000 )
                  ( -1.0000000  0.0000000  0.0000000 )


      isym = 45     inv. 120 deg rotation - cart. axis [1,1,1]   

 cryst.   s(45) = (     0         -1          0      )
                  (     0          0         -1      )
                  (    -1          0          0      )

 cart.    s(45) = (  0.0000000  0.0000000 -1.0000000 )
                  ( -1.0000000  0.0000000  0.0000000 )
                  (  0.0000000 -1.0000000  0.0000000 )


      isym = 46     inv. 120 deg rotation - cart. axis [-1,1,-1] 

 cryst.   s(46) = (     0          1          0      )
                  (     0          0          1      )
                  (    -1          0          0      )

 cart.    s(46) = (  0.0000000  0.0000000 -1.0000000 )
                  (  1.0000000  0.0000000  0.0000000 )
                  (  0.0000000  1.0000000  0.0000000 )


      isym = 47     inv. 120 deg rotation - cart. axis [1,-1,-1] 

 cryst.   s(47) = (     0          1          0      )
                  (     0          0         -1      )
                  (     1          0          0      )

 cart.    s(47) = (  0.0000000  0.0000000  1.0000000 )
                  (  1.0000000  0.0000000  0.0000000 )
                  (  0.0000000 -1.0000000  0.0000000 )


      isym = 48     inv. 120 deg rotation - cart. axis [-1,-1,1] 

 cryst.   s(48) = (     0         -1          0      )
                  (     0          0          1      )
                  (     1          0          0      )

 cart.    s(48) = (  0.0000000  0.0000000  1.0000000 )
                  ( -1.0000000  0.0000000  0.0000000 )
                  (  0.0000000  1.0000000  0.0000000 )


     point group O_h (m-3m) 
     there are 10 classes
     the character table:

       E     8C3   3C2   6C4   6C2'  i     8S6   3s_h  6S4   6s_d 
A_1g   1.00  1.00  1.00  1.00  1.00  1.00  1.00  1.00  1.00  1.00
A_2g   1.00  1.00  1.00 -1.00 -1.00  1.00  1.00  1.00 -1.00 -1.00
E_g    2.00 -1.00  2.00  0.00  0.00  2.00 -1.00  2.00  0.00  0.00
T_1g   3.00  0.00 -1.00  1.00 -1.00  3.00  0.00 -1.00  1.00 -1.00
T_2g   3.00  0.00 -1.00 -1.00  1.00  3.00  0.00 -1.00 -1.00  1.00
A_1u   1.00  1.00  1.00  1.00  1.00 -1.00 -1.00 -1.00 -1.00 -1.00
A_2u   1.00  1.00  1.00 -1.00 -1.00 -1.00 -1.00 -1.00  1.00  1.00
E_u    2.00 -1.00  2.00  0.00  0.00 -2.00  1.00 -2.00  0.00  0.00
T_1u   3.00  0.00 -1.00  1.00 -1.00 -3.00  0.00  1.00 -1.00  1.00
T_2u   3.00  0.00 -1.00 -1.00  1.00 -3.00  0.00  1.00  1.00 -1.00

     the symmetry operations in each class and the name of the first element:

     E        1
          identity                                               
     8C3     17   19   20   18   24   21   22   23
          120 deg rotation - cart. axis [-1,-1,-1]               
     3C2      2    4    3
          180 deg rotation - cart. axis [0,0,1]                  
     6C4      7    8   15   16   12   11
           90 deg rotation - cart. axis [0,0,-1]                 
     6C2'     5    6   14   13   10    9
          180 deg rotation - cart. axis [1,1,0]                  
     i       25
          inversion                                              
     8S6     41   43   44   42   48   45   46   47
          inv. 120 deg rotation - cart. axis [-1,-1,-1]          
     3s_h    26   28   27
          inv. 180 deg rotation - cart. axis [0,0,1]             
     6S4     31   32   39   40   36   35
          inv.  90 deg rotation - cart. axis [0,0,-1]            
     6s_d    29   30   38   37   34   33
          inv. 180 deg rotation - cart. axis [1,1,0]             

   Cartesian axes

     site n.     atom                  positions (alat units)
         1        Al     tau(   1) = (   0.0000000   0.0000000   0.0000000  )
         2        Al     tau(   2) = (   0.5000000   0.5000000   0.5000000  )
         3        Nb     tau(   3) = (   0.2500000   0.0000000   0.5000000  )
         4        Nb     tau(   4) = (   0.7500000   0.0000000   0.5000000  )
         5        Nb     tau(   5) = (   0.5000000   0.2500000   0.0000000  )
         6        Nb     tau(   6) = (   0.5000000   0.7500000   0.0000000  )
         7        Nb     tau(   7) = (   0.0000000   0.5000000   0.2500000  )
         8        Nb     tau(   8) = (   0.0000000   0.5000000   0.7500000  )

   Crystallographic axes

     site n.     atom                  positions (cryst. coord.)
         1        Al     tau(   1) = (  0.0000000  0.0000000  0.0000000  )
         2        Al     tau(   2) = (  0.5000000  0.5000000  0.5000000  )
         3        Nb     tau(   3) = (  0.2500000  0.0000000  0.5000000  )
         4        Nb     tau(   4) = (  0.7500000  0.0000000  0.5000000  )
         5        Nb     tau(   5) = (  0.5000000  0.2500000  0.0000000  )
         6        Nb     tau(   6) = (  0.5000000  0.7500000  0.0000000  )
         7        Nb     tau(   7) = (  0.0000000  0.5000000  0.2500000  )
         8        Nb     tau(   8) = (  0.0000000  0.5000000  0.7500000  )

     number of k points=    35  Methfessel-Paxton smearing, width (Ry)=  0.0200
                       cart. coord. in units 2pi/alat
        k(    1) = (   0.0000000   0.0000000   0.0000000), wk =   0.0039062
        k(    2) = (   0.0000000   0.0000000   0.1250000), wk =   0.0234375
        k(    3) = (   0.0000000   0.0000000   0.2500000), wk =   0.0234375
        k(    4) = (   0.0000000   0.0000000   0.3750000), wk =   0.0234375
        k(    5) = (   0.0000000   0.0000000  -0.5000000), wk =   0.0117188
        k(    6) = (   0.0000000   0.1250000   0.1250000), wk =   0.0468750
        k(    7) = (   0.0000000   0.1250000   0.2500000), wk =   0.0937500
        k(    8) = (   0.0000000   0.1250000   0.3750000), wk =   0.0937500
        k(    9) = (   0.0000000   0.1250000  -0.5000000), wk =   0.0468750
        k(   10) = (   0.0000000   0.2500000   0.2500000), wk =   0.0468750
        k(   11) = (   0.0000000   0.2500000   0.3750000), wk =   0.0937500
        k(   12) = (   0.0000000   0.2500000  -0.5000000), wk =   0.0468750
        k(   13) = (   0.0000000   0.3750000   0.3750000), wk =   0.0468750
        k(   14) = (   0.0000000   0.3750000  -0.5000000), wk =   0.0468750
        k(   15) = (   0.0000000  -0.5000000  -0.5000000), wk =   0.0117188
        k(   16) = (   0.1250000   0.1250000   0.1250000), wk =   0.0312500
        k(   17) = (   0.1250000   0.1250000   0.2500000), wk =   0.0937500
        k(   18) = (   0.1250000   0.1250000   0.3750000), wk =   0.0937500
        k(   19) = (   0.1250000   0.1250000  -0.5000000), wk =   0.0468750
        k(   20) = (   0.1250000   0.2500000   0.2500000), wk =   0.0937500
        k(   21) = (   0.1250000   0.2500000   0.3750000), wk =   0.1875000
        k(   22) = (   0.1250000   0.2500000  -0.5000000), wk =   0.0937500
        k(   23) = (   0.1250000   0.3750000   0.3750000), wk =   0.0937500
        k(   24) = (   0.1250000   0.3750000  -0.5000000), wk =   0.0937500
        k(   25) = (   0.1250000  -0.5000000  -0.5000000), wk =   0.0234375
        k(   26) = (   0.2500000   0.2500000   0.2500000), wk =   0.0312500
        k(   27) = (   0.2500000   0.2500000   0.3750000), wk =   0.0937500
        k(   28) = (   0.2500000   0.2500000  -0.5000000), wk =   0.0468750
        k(   29) = (   0.2500000   0.3750000   0.3750000), wk =   0.0937500
        k(   30) = (   0.2500000   0.3750000  -0.5000000), wk =   0.0937500
        k(   31) = (   0.2500000  -0.5000000  -0.5000000), wk =   0.0234375
        k(   32) = (   0.3750000   0.3750000   0.3750000), wk =   0.0312500
        k(   33) = (   0.3750000   0.3750000  -0.5000000), wk =   0.0468750
        k(   34) = (   0.3750000  -0.5000000  -0.5000000), wk =   0.0234375
        k(   35) = (  -0.5000000  -0.5000000  -0.5000000), wk =   0.0039062

                       cryst. coord.
        k(    1) = (   0.0000000   0.0000000   0.0000000), wk =   0.0039062
        k(    2) = (   0.0000000   0.0000000   0.1250000), wk =   0.0234375
        k(    3) = (   0.0000000   0.0000000   0.2500000), wk =   0.0234375
        k(    4) = (   0.0000000   0.0000000   0.3750000), wk =   0.0234375
        k(    5) = (   0.0000000   0.0000000  -0.5000000), wk =   0.0117188
        k(    6) = (   0.0000000   0.1250000   0.1250000), wk =   0.0468750
        k(    7) = (   0.0000000   0.1250000   0.2500000), wk =   0.0937500
        k(    8) = (   0.0000000   0.1250000   0.3750000), wk =   0.0937500
        k(    9) = (   0.0000000   0.1250000  -0.5000000), wk =   0.0468750
        k(   10) = (   0.0000000   0.2500000   0.2500000), wk =   0.0468750
        k(   11) = (   0.0000000   0.2500000   0.3750000), wk =   0.0937500
        k(   12) = (   0.0000000   0.2500000  -0.5000000), wk =   0.0468750
        k(   13) = (   0.0000000   0.3750000   0.3750000), wk =   0.0468750
        k(   14) = (   0.0000000   0.3750000  -0.5000000), wk =   0.0468750
        k(   15) = (   0.0000000  -0.5000000  -0.5000000), wk =   0.0117188
        k(   16) = (   0.1250000   0.1250000   0.1250000), wk =   0.0312500
        k(   17) = (   0.1250000   0.1250000   0.2500000), wk =   0.0937500
        k(   18) = (   0.1250000   0.1250000   0.3750000), wk =   0.0937500
        k(   19) = (   0.1250000   0.1250000  -0.5000000), wk =   0.0468750
        k(   20) = (   0.1250000   0.2500000   0.2500000), wk =   0.0937500
        k(   21) = (   0.1250000   0.2500000   0.3750000), wk =   0.1875000
        k(   22) = (   0.1250000   0.2500000  -0.5000000), wk =   0.0937500
        k(   23) = (   0.1250000   0.3750000   0.3750000), wk =   0.0937500
        k(   24) = (   0.1250000   0.3750000  -0.5000000), wk =   0.0937500
        k(   25) = (   0.1250000  -0.5000000  -0.5000000), wk =   0.0234375
        k(   26) = (   0.2500000   0.2500000   0.2500000), wk =   0.0312500
        k(   27) = (   0.2500000   0.2500000   0.3750000), wk =   0.0937500
        k(   28) = (   0.2500000   0.2500000  -0.5000000), wk =   0.0468750
        k(   29) = (   0.2500000   0.3750000   0.3750000), wk =   0.0937500
        k(   30) = (   0.2500000   0.3750000  -0.5000000), wk =   0.0937500
        k(   31) = (   0.2500000  -0.5000000  -0.5000000), wk =   0.0234375
        k(   32) = (   0.3750000   0.3750000   0.3750000), wk =   0.0312500
        k(   33) = (   0.3750000   0.3750000  -0.5000000), wk =   0.0468750
        k(   34) = (   0.3750000  -0.5000000  -0.5000000), wk =   0.0234375
        k(   35) = (  -0.5000000  -0.5000000  -0.5000000), wk =   0.0039062

     Dense  grid:   359901 G-vectors     FFT dimensions: (  90,  90,  90)

     Smooth grid:    91047 G-vectors     FFT dimensions: (  60,  60,  60)

     Dynamical RAM for                 wfc:       1.08 MB

     Dynamical RAM for     wfc (w. buffer):      39.06 MB

     Dynamical RAM for           str. fact:       1.37 MB

     Dynamical RAM for           local pot:       0.00 MB

     Dynamical RAM for          nlocal pot:       3.12 MB

     Dynamical RAM for                qrad:       4.54 MB

     Dynamical RAM for          rho,v,vnew:       4.28 MB

     Dynamical RAM for               rhoin:       1.43 MB

     Dynamical RAM for            rho*nmix:      10.98 MB

     Dynamical RAM for           G-vectors:       2.66 MB

     Dynamical RAM for          h,s,v(r/c):       0.46 MB

     Dynamical RAM for          <psi|beta>:       0.11 MB

     Dynamical RAM for                 psi:       2.17 MB

     Dynamical RAM for                hpsi:       2.17 MB

     Dynamical RAM for                spsi:       2.17 MB

     Dynamical RAM for      wfcinit/wfcrot:       2.23 MB

     Dynamical RAM for           addusdens:     131.80 MB

     Dynamical RAM for          addusforce:     139.03 MB

     Dynamical RAM for         addusstress:     137.98 MB

     Estimated static dynamical RAM per process >      62.23 MB

     Estimated max dynamical RAM per process >     212.24 MB

     Estimated total dynamical RAM >       1.66 GB

     Initial potential from superposition of free atoms

     starting charge      83.9876, renormalised to      84.0000
     Starting wfcs are   86 randomized atomic wfcs

     total cpu time spent up to now is       59.2 secs

     per-process dynamical memory:    83.4 Mb

     Self-consistent Calculation

     iteration #  1     ecut=    80.00 Ry     beta= 0.30
     Davidson diagonalization with overlap

---- Real-time Memory Report at c_bands before calling an iterative solver
           216 MiB given to the printing process from OS
            81 MiB allocation reported by mallinfo(arena+hblkhd)
        295671 MiB available memory on the node where the printing process lives
------------------
     ethr =  1.00E-02,  avg # of iterations =  2.0

     Threshold (ethr) on eigenvalues was too large:
     Diagonalizing with lowered threshold

     Davidson diagonalization with overlap

---- Real-time Memory Report at c_bands before calling an iterative solver
           252 MiB given to the printing process from OS
            92 MiB allocation reported by mallinfo(arena+hblkhd)
        294795 MiB available memory on the node where the printing process lives
------------------
     ethr =  1.47E-04,  avg # of iterations =  3.1

     total cpu time spent up to now is      244.6 secs

     total energy              =    -718.40647895 Ry
     estimated scf accuracy    <       0.14879066 Ry

     iteration #  2     ecut=    80.00 Ry     beta= 0.30
     Davidson diagonalization with overlap

---- Real-time Memory Report at c_bands before calling an iterative solver
           253 MiB given to the printing process from OS
            94 MiB allocation reported by mallinfo(arena+hblkhd)
        294344 MiB available memory on the node where the printing process lives
------------------
     ethr =  1.77E-04,  avg # of iterations =  1.0

     total cpu time spent up to now is      320.1 secs

     total energy              =    -718.38614312 Ry
     estimated scf accuracy    <       0.05118767 Ry

     iteration #  3     ecut=    80.00 Ry     beta= 0.30
     Davidson diagonalization with overlap

---- Real-time Memory Report at c_bands before calling an iterative solver
           254 MiB given to the printing process from OS
            94 MiB allocation reported by mallinfo(arena+hblkhd)
        294424 MiB available memory on the node where the printing process lives
------------------
     ethr =  6.09E-05,  avg # of iterations =  2.1

     total cpu time spent up to now is      423.1 secs

     total energy              =    -718.39534023 Ry
     estimated scf accuracy    <       0.00230379 Ry

     iteration #  4     ecut=    80.00 Ry     beta= 0.30
     Davidson diagonalization with overlap

---- Real-time Memory Report at c_bands before calling an iterative solver
           254 MiB given to the printing process from OS
            95 MiB allocation reported by mallinfo(arena+hblkhd)
        294386 MiB available memory on the node where the printing process lives
------------------
     ethr =  2.74E-06,  avg # of iterations =  8.4

     total cpu time spent up to now is      543.2 secs

     total energy              =    -718.39560110 Ry
     estimated scf accuracy    <       0.00077748 Ry

     iteration #  5     ecut=    80.00 Ry     beta= 0.30
     Davidson diagonalization with overlap

---- Real-time Memory Report at c_bands before calling an iterative solver
           255 MiB given to the printing process from OS
            95 MiB allocation reported by mallinfo(arena+hblkhd)
        294456 MiB available memory on the node where the printing process lives
------------------
     ethr =  9.26E-07,  avg # of iterations =  3.1

     total cpu time spent up to now is      647.5 secs

     total energy              =    -718.39558720 Ry
     estimated scf accuracy    <       0.00059253 Ry

     iteration #  6     ecut=    80.00 Ry     beta= 0.30
     Davidson diagonalization with overlap

---- Real-time Memory Report at c_bands before calling an iterative solver
           255 MiB given to the printing process from OS
            95 MiB allocation reported by mallinfo(arena+hblkhd)
        294703 MiB available memory on the node where the printing process lives
------------------
     ethr =  7.05E-07,  avg # of iterations =  2.0

     total cpu time spent up to now is      734.4 secs

     total energy              =    -718.39563114 Ry
     estimated scf accuracy    <       0.00003803 Ry

     iteration #  7     ecut=    80.00 Ry     beta= 0.30
     Davidson diagonalization with overlap

---- Real-time Memory Report at c_bands before calling an iterative solver
           255 MiB given to the printing process from OS
            96 MiB allocation reported by mallinfo(arena+hblkhd)
        294232 MiB available memory on the node where the printing process lives
------------------
     ethr =  4.53E-08,  avg # of iterations =  5.9

     total cpu time spent up to now is      855.4 secs

     total energy              =    -718.39564600 Ry
     estimated scf accuracy    <       0.00002586 Ry

     iteration #  8     ecut=    80.00 Ry     beta= 0.30
     Davidson diagonalization with overlap

---- Real-time Memory Report at c_bands before calling an iterative solver
           255 MiB given to the printing process from OS
            96 MiB allocation reported by mallinfo(arena+hblkhd)
        294348 MiB available memory on the node where the printing process lives
------------------
     ethr =  3.08E-08,  avg # of iterations =  2.3

     total cpu time spent up to now is      939.0 secs

     total energy              =    -718.39565156 Ry
     estimated scf accuracy    <       0.00000123 Ry

     iteration #  9     ecut=    80.00 Ry     beta= 0.30
     Davidson diagonalization with overlap

---- Real-time Memory Report at c_bands before calling an iterative solver
           255 MiB given to the printing process from OS
            96 MiB allocation reported by mallinfo(arena+hblkhd)
        294199 MiB available memory on the node where the printing process lives
------------------
     ethr =  1.46E-09,  avg # of iterations =  5.2

     total cpu time spent up to now is     1053.2 secs

     total energy              =    -718.39565190 Ry
     estimated scf accuracy    <       0.00000041 Ry

     iteration # 10     ecut=    80.00 Ry     beta= 0.30
     Davidson diagonalization with overlap

---- Real-time Memory Report at c_bands before calling an iterative solver
           256 MiB given to the printing process from OS
            97 MiB allocation reported by mallinfo(arena+hblkhd)
        293763 MiB available memory on the node where the printing process lives
------------------
     ethr =  4.93E-10,  avg # of iterations =  2.3

     total cpu time spent up to now is     1128.6 secs

     total energy              =    -718.39565191 Ry
     estimated scf accuracy    <       0.00000005 Ry

     iteration # 11     ecut=    80.00 Ry     beta= 0.30
     Davidson diagonalization with overlap

---- Real-time Memory Report at c_bands before calling an iterative solver
           256 MiB given to the printing process from OS
            97 MiB allocation reported by mallinfo(arena+hblkhd)
        294517 MiB available memory on the node where the printing process lives
------------------
     ethr =  6.10E-11,  avg # of iterations =  5.6

     total cpu time spent up to now is     1254.2 secs

     total energy              =    -718.39565193 Ry
     estimated scf accuracy    <       0.00000003 Ry

     iteration # 12     ecut=    80.00 Ry     beta= 0.30
     Davidson diagonalization with overlap

---- Real-time Memory Report at c_bands before calling an iterative solver
           256 MiB given to the printing process from OS
            97 MiB allocation reported by mallinfo(arena+hblkhd)
        294382 MiB available memory on the node where the printing process lives
------------------
     ethr =  3.40E-11,  avg # of iterations =  2.1

     total cpu time spent up to now is     1354.9 secs

     total energy              =    -718.39565194 Ry
     estimated scf accuracy    <          2.5E-10 Ry

     iteration # 13     ecut=    80.00 Ry     beta= 0.30
     Davidson diagonalization with overlap

---- Real-time Memory Report at c_bands before calling an iterative solver
           256 MiB given to the printing process from OS
            97 MiB allocation reported by mallinfo(arena+hblkhd)
        294299 MiB available memory on the node where the printing process lives
------------------
     ethr =  3.03E-13,  avg # of iterations =  6.8

     total cpu time spent up to now is     1500.1 secs

     End of self-consistent calculation

          k = 0.0000 0.0000 0.0000 ( 11363 PWs)   bands (ev):

   -38.8551 -38.7637 -38.7637 -38.4951 -38.4951 -38.4951 -15.9228 -15.9228
   -15.7456 -15.0739 -15.0739 -15.0739 -14.6486 -14.6486 -14.6486 -14.6249
   -14.6249 -14.6249 -14.5158 -14.5158 -14.5158 -13.8556 -13.8556 -13.8556
     8.1337  10.2944  12.4074  12.4074  12.4074  12.7403  12.7403  13.0176
    13.0176  13.0176  13.3499  14.3299  14.3299  14.3299  14.4277  15.1016
    15.1016  15.1016  15.6708  15.6708  18.4266  18.4266  18.4266  19.3354
    19.3355  19.4592

     occupation numbers 
     1.0000   1.0000   1.0000   1.0000   1.0000   1.0000   1.0000   1.0000
     1.0000   1.0000   1.0000   1.0000   1.0000   1.0000   1.0000   1.0000
     1.0000   1.0000   1.0000   1.0000   1.0000   1.0000   1.0000   1.0000
     1.0000   1.0000   1.0000   1.0000   1.0000   1.0000   1.0000   1.0000
     1.0000   1.0000   1.0000   1.0000   1.0000   1.0000   1.0000   1.0065
     1.0065   1.0065   0.4768   0.4768  -0.0000  -0.0000  -0.0000  -0.0000
    -0.0000  -0.0000

          k = 0.0000 0.0000 0.1250 ( 11324 PWs)   bands (ev):

   -38.8493 -38.7663 -38.7561 -38.5066 -38.4951 -38.4951 -15.9202 -15.8861
   -15.7203 -15.0716 -15.0716 -15.0541 -14.6777 -14.6777 -14.6436 -14.6407
   -14.5919 -14.5919 -14.5219 -14.5219 -14.5209 -13.9400 -13.8558 -13.8558
     8.2421  10.2258  12.4536  12.4536  12.5307  12.6214  12.6574  13.0747
    13.0747  13.1743  13.4941  14.1158  14.2101  14.2101  14.4658  15.0956
    15.2366  15.2366  15.7364  15.7550  18.2065  18.3280  18.3280  19.1889
    19.1957  19.2944

     occupation numbers 
     1.0000   1.0000   1.0000   1.0000   1.0000   1.0000   1.0000   1.0000
     1.0000   1.0000   1.0000   1.0000   1.0000   1.0000   1.0000   1.0000
     1.0000   1.0000   1.0000   1.0000   1.0000   1.0000   1.0000   1.0000
     1.0000   1.0000   1.0000   1.0000   1.0000   1.0000   1.0000   1.0000
     1.0000   1.0000   1.0000   1.0000   1.0000   1.0000   1.0000   1.0060
     1.0245   1.0245   0.2815   0.2319  -0.0000  -0.0000  -0.0000  -0.0000
    -0.0000  -0.0000

          k = 0.0000 0.0000 0.2500 ( 11364 PWs)   bands (ev):

   -38.8349 -38.7739 -38.7324 -38.5390 -38.4951 -38.4951 -15.9125 -15.8552
   -15.5698 -15.0665 -15.0665 -14.9996 -14.7048 -14.7048 -14.6861 -14.6293
   -14.5574 -14.5574 -14.5355 -14.5346 -14.5346 -14.1760 -13.8563 -13.8563
     8.5504  10.0729  12.1112  12.3230  12.5802  12.5802  13.1743  13.1743
    13.2129  13.5699  13.8133  13.8376  14.1062  14.1062  14.5719  15.0682
    15.3647  15.3647  15.7972  15.9063  17.5578  18.1333  18.1333  18.8700
    19.0160  19.0577

     occupation numbers 
     1.0000   1.0000   1.0000   1.0000   1.0000   1.0000   1.0000   1.0000
     1.0000   1.0000   1.0000   1.0000   1.0000   1.0000   1.0000   1.0000
     1.0000   1.0000   1.0000   1.0000   1.0000   1.0000   1.0000   1.0000
     1.0000   1.0000   1.0000   1.0000   1.0000   1.0000   1.0000   1.0000
     1.0000   1.0000   1.0000   1.0000   1.0000   1.0000   1.0000   1.0042
     1.0325   1.0325   0.1343  -0.0102  -0.0000  -0.0000  -0.0000  -0.0000
    -0.0000  -0.0000

          k = 0.0000 0.0000 0.3750 ( 11384 PWs)   bands (ev):

   -38.8174 -38.7856 -38.6925 -38.5866 -38.4951 -38.4951 -15.8997 -15.8646
   -15.2774 -15.0619 -15.0619 -14.9221 -14.7557 -14.7182 -14.7182 -14.6079
   -14.5607 -14.5607 -14.5571 -14.5228 -14.5228 -14.5172 -13.8568 -13.8568
     9.0038   9.8542  11.7639  11.8761  12.7539  12.7539  13.1430  13.1430
    13.6552  13.6883  14.0291  14.3018  14.3018  14.6649  14.7216  14.9986
    15.1920  15.1920  15.7393  15.7630  17.0367  18.0692  18.0692  18.4073
    18.6685  18.7699

     occupation numbers 
     1.0000   1.0000   1.0000   1.0000   1.0000   1.0000   1.0000   1.0000
     1.0000   1.0000   1.0000   1.0000   1.0000   1.0000   1.0000   1.0000
     1.0000   1.0000   1.0000   1.0000   1.0000   1.0000   1.0000   1.0000
     1.0000   1.0000   1.0000   1.0000   1.0000   1.0000   1.0000   1.0000
     1.0000   1.0000   1.0000   1.0000   1.0000   1.0000   1.0000   1.0015
     1.0172   1.0172   0.2734   0.2118  -0.0000  -0.0000  -0.0000  -0.0000
    -0.0000  -0.0000

          k = 0.0000 0.0000-0.5000 ( 11380 PWs)   bands (ev):

   -38.8004 -38.8004 -38.6409 -38.6409 -38.4951 -38.4951 -15.8828 -15.8828
   -15.0601 -15.0601 -14.9121 -14.9121 -14.8313 -14.8313 -14.7214 -14.7214
   -14.5826 -14.5826 -14.5681 -14.5681 -14.5140 -14.5140 -13.8570 -13.8570
     9.4893   9.4893  11.6481  11.6481  12.8883  12.8883  13.0399  13.0399
    13.6713  13.6713  14.6669  14.6669  14.8320  14.8320  14.8769  14.8769
    14.9316  14.9316  15.4443  15.4443  17.4185  17.4185  18.1076  18.1076
    18.6368  18.6368

     occupation numbers 
     1.0000   1.0000   1.0000   1.0000   1.0000   1.0000   1.0000   1.0000
     1.0000   1.0000   1.0000   1.0000   1.0000   1.0000   1.0000   1.0000
     1.0000   1.0000   1.0000   1.0000   1.0000   1.0000   1.0000   1.0000
     1.0000   1.0000   1.0000   1.0000   1.0000   1.0000   1.0000   1.0000
     1.0000   1.0000   1.0000   1.0000   1.0001   1.0001   1.0002   1.0002
     1.0005   1.0005   0.9913   0.9913  -0.0000  -0.0000  -0.0000  -0.0000
    -0.0000  -0.0000

          k = 0.0000 0.1250 0.1250 ( 11365 PWs)   bands (ev):

   -38.8435 -38.7636 -38.7539 -38.5077 -38.5055 -38.4951 -15.9031 -15.8542
   -15.7046 -15.0681 -15.0534 -15.0508 -14.7027 -14.6991 -14.6307 -14.6276
   -14.5915 -14.5772 -14.5402 -14.5282 -14.5126 -13.9438 -13.9364 -13.8560
     8.3485  10.1808  12.4352  12.5007  12.5223  12.6125  12.8403  12.8898
    13.1384  13.3825  13.6033  13.9629  14.1103  14.1812  14.5054  15.1333
    15.2568  15.2966  15.7908  15.8276  17.9510  18.2030  18.3445  18.9754
    19.1161  19.1779

     occupation numbers 
     1.0000   1.0000   1.0000   1.0000   1.0000   1.0000   1.0000   1.0000
     1.0000   1.0000   1.0000   1.0000   1.0000   1.0000   1.0000   1.0000
     1.0000   1.0000   1.0000   1.0000   1.0000   1.0000   1.0000   1.0000
     1.0000   1.0000   1.0000   1.0000   1.0000   1.0000   1.0000   1.0000
     1.0000   1.0000   1.0000   1.0000   1.0000   1.0000   1.0000   1.0094
     1.0279   1.0335   0.1476   0.0782  -0.0000  -0.0000  -0.0000  -0.0000
    -0.0000  -0.0000

          k = 0.0000 0.1250 0.2500 ( 11374 PWs)   bands (ev):

   -38.8290 -38.7687 -38.7326 -38.5392 -38.5065 -38.4951 -15.8940 -15.8079
   -15.5713 -15.0598 -15.0479 -14.9987 -14.7352 -14.7241 -14.6545 -14.6209
   -14.5672 -14.5639 -14.5450 -14.5424 -14.5147 -14.1756 -13.9400 -13.8564
     8.6509  10.0722  12.1278  12.3301  12.5981  12.6297  12.9605  13.2555
    13.3651  13.6582  13.8271  13.9476  14.0117  14.0852  14.6079  15.1384
    15.3167  15.3736  15.8521  15.9129  17.4338  17.9475  18.1201  18.5984
    18.9007  19.0133

     occupation numbers 
     1.0000   1.0000   1.0000   1.0000   1.0000   1.0000   1.0000   1.0000
     1.0000   1.0000   1.0000   1.0000   1.0000   1.0000   1.0000   1.0000
     1.0000   1.0000   1.0000   1.0000   1.0000   1.0000   1.0000   1.0000
     1.0000   1.0000   1.0000   1.0000   1.0000   1.0000   1.0000   1.0000
     1.0000   1.0000   1.0000   1.0000   1.0000   1.0000   1.0000   1.0100
     1.0351   1.0306   0.0423  -0.0143  -0.0000  -0.0000  -0.0000  -0.0000
    -0.0000  -0.0000

          k = 0.0000 0.1250 0.3750 ( 11373 PWs)   bands (ev):

   -38.8119 -38.7794 -38.6930 -38.5869 -38.5066 -38.4951 -15.8870 -15.8095
   -15.2829 -15.0518 -15.0431 -14.9242 -14.7758 -14.7360 -14.6911 -14.6255
   -14.5698 -14.5691 -14.5461 -14.5258 -14.5200 -14.5039 -13.9403 -13.8569
     9.0929   9.8936  11.7914  11.9127  12.6970  12.8065  13.0464  13.2241
    13.6861  13.8159  14.0501  14.2001  14.2846  14.7266  14.7390  15.0980
    15.1215  15.2277  15.7615  15.8549  16.9943  17.7960  17.9498  18.2771
    18.3041  18.5548

     occupation numbers 
     1.0000   1.0000   1.0000   1.0000   1.0000   1.0000   1.0000   1.0000
     1.0000   1.0000   1.0000   1.0000   1.0000   1.0000   1.0000   1.0000
     1.0000   1.0000   1.0000   1.0000   1.0000   1.0000   1.0000   1.0000
     1.0000   1.0000   1.0000   1.0000   1.0000   1.0000   1.0000   1.0000
     1.0000   1.0000   1.0000   1.0000   1.0000   1.0000   1.0000   1.0062
     1.0082   1.0230   0.2155   0.0387  -0.0000  -0.0000  -0.0000  -0.0000
    -0.0000  -0.0000

          k = 0.0000 0.1250-0.5000 ( 11370 PWs)   bands (ev):

   -38.7996 -38.7896 -38.6418 -38.6410 -38.5066 -38.4951 -15.8836 -15.8140
   -15.0554 -15.0486 -14.9116 -14.9053 -14.8515 -14.8257 -14.7381 -14.7019
   -14.6328 -14.5750 -14.5655 -14.5321 -14.5244 -14.5120 -13.9404 -13.8571
     9.5556   9.5627  11.6534  11.7160  12.7477  12.9397  13.0557  13.1185
    13.6806  13.8315  14.4911  14.5272  14.5470  14.7114  15.0403  15.0663
    15.0718  15.1497  15.4586  15.6066  17.3124  17.4133  17.7798  17.9521
    18.1382  18.3591

     occupation numbers 
     1.0000   1.0000   1.0000   1.0000   1.0000   1.0000   1.0000   1.0000
     1.0000   1.0000   1.0000   1.0000   1.0000   1.0000   1.0000   1.0000
     1.0000   1.0000   1.0000   1.0000   1.0000   1.0000   1.0000   1.0000
     1.0000   1.0000   1.0000   1.0000   1.0000   1.0000   1.0000   1.0000
     1.0000   1.0000   1.0000   1.0000   1.0000   1.0000   1.0028   1.0041
     1.0044   1.0113   0.9768   0.6720  -0.0000  -0.0000  -0.0000  -0.0000
    -0.0000  -0.0000

          k = 0.0000 0.2500 0.2500 ( 11400 PWs)   bands (ev):

   -38.8155 -38.7578 -38.7261 -38.5436 -38.5349 -38.4951 -15.8868 -15.6560
   -15.5426 -15.0427 -15.0028 -14.9926 -14.7648 -14.7521 -14.6421 -14.6351
   -14.5836 -14.5606 -14.5562 -14.5316 -14.5042 -14.1874 -14.1609 -13.8569
     8.9343  10.0627  11.9930  12.2690  12.5961  12.7653  12.8216  13.4523
    13.6964  13.8539  13.8548  13.8943  14.0496  14.2301  14.6820  15.2512
    15.3799  15.4226  15.6983  15.9969  17.0960  17.5825  17.9983  18.1406
    18.6034  18.6326

     occupation numbers 
     1.0000   1.0000   1.0000   1.0000   1.0000   1.0000   1.0000   1.0000
     1.0000   1.0000   1.0000   1.0000   1.0000   1.0000   1.0000   1.0000
     1.0000   1.0000   1.0000   1.0000   1.0000   1.0000   1.0000   1.0000
     1.0000   1.0000   1.0000   1.0000   1.0000   1.0000   1.0000   1.0000
     1.0000   1.0000   1.0000   1.0000   1.0000   1.0000   1.0000   1.0270
     1.0289   1.0086   0.3920  -0.0355  -0.0000  -0.0000  -0.0000  -0.0000
    -0.0000  -0.0000

          k = 0.0000 0.2500 0.3750 ( 11355 PWs)   bands (ev):

   -38.8028 -38.7568 -38.6934 -38.5880 -38.5386 -38.4951 -15.8857 -15.6166
   -15.2924 -15.0242 -14.9966 -14.9317 -14.7909 -14.7670 -14.6801 -14.6581
   -14.5943 -14.5767 -14.5410 -14.5139 -14.5031 -14.4963 -14.1720 -13.8573
     9.3411   9.9917  11.7701  11.9092  12.6273  12.9500  12.9861  13.4540
    13.7048  13.9713  13.9945  14.2159  14.2423  14.6847  14.8320  15.3097
    15.3549  15.3666  15.7386  15.9291  16.8028  17.3043  17.7223  17.7335
    18.0934  18.1372

     occupation numbers 
     1.0000   1.0000   1.0000   1.0000   1.0000   1.0000   1.0000   1.0000
     1.0000   1.0000   1.0000   1.0000   1.0000   1.0000   1.0000   1.0000
     1.0000   1.0000   1.0000   1.0000   1.0000   1.0000   1.0000   1.0000
     1.0000   1.0000   1.0000   1.0000   1.0000   1.0000   1.0000   1.0000
     1.0000   1.0000   1.0000   1.0000   1.0000   1.0000   1.0001   1.0347
     1.0340   1.0321   0.2755  -0.0225  -0.0000  -0.0000  -0.0000  -0.0000
    -0.0000  -0.0000

          k = 0.0000 0.2500-0.5000 ( 11368 PWs)   bands (ev):

   -38.7974 -38.7590 -38.6440 -38.6412 -38.5388 -38.4951 -15.8856 -15.6165
   -15.0448 -15.0161 -14.9098 -14.8871 -14.8860 -14.8105 -14.7688 -14.6994
   -14.6699 -14.5932 -14.5520 -14.5338 -14.5083 -14.5033 -14.1717 -13.8575
     9.7372   9.7583  11.6585  11.7369  12.6219  13.0803  13.0888  13.3387
    13.6890  14.1331  14.2556  14.2561  14.3098  14.5540  15.3132  15.3518
    15.4119  15.4239  15.5603  15.7727  17.0343  17.2293  17.3561  17.5276
    17.7629  17.7672

     occupation numbers 
     1.0000   1.0000   1.0000   1.0000   1.0000   1.0000   1.0000   1.0000
     1.0000   1.0000   1.0000   1.0000   1.0000   1.0000   1.0000   1.0000
     1.0000   1.0000   1.0000   1.0000   1.0000   1.0000   1.0000   1.0000
     1.0000   1.0000   1.0000   1.0000   1.0000   1.0000   1.0000   1.0000
     1.0000   1.0000   1.0000   1.0000   1.0000   1.0000   1.0349   1.0344
     1.0153   1.0077   0.7963   0.1884  -0.0000  -0.0000  -0.0000  -0.0000
    -0.0000  -0.0000

          k = 0.0000 0.3750 0.3750 ( 11358 PWs)   bands (ev):

   -38.7971 -38.7247 -38.6846 -38.5971 -38.5779 -38.4951 -15.8869 -15.3525
   -15.2674 -14.9893 -14.9462 -14.9379 -14.7930 -14.7886 -14.7363 -14.6528
   -14.6308 -14.6003 -14.5171 -14.5108 -14.5058 -14.4926 -14.4707 -13.8577
     9.6830  10.0719  11.6384  11.7001  12.7960  12.9993  13.1409  13.6491
    13.7699  13.7933  13.9083  14.1267  14.5231  14.6433  15.1652  15.5485
    15.5656  15.7630  15.7950  15.9406  16.5616  16.8500  17.1977  17.3726
    17.8023  17.8468

     occupation numbers 
     1.0000   1.0000   1.0000   1.0000   1.0000   1.0000   1.0000   1.0000
     1.0000   1.0000   1.0000   1.0000   1.0000   1.0000   1.0000   1.0000
     1.0000   1.0000   1.0000   1.0000   1.0000   1.0000   1.0000   1.0000
     1.0000   1.0000   1.0000   1.0000   1.0000   1.0000   1.0000   1.0000
     1.0000   1.0000   1.0000   1.0000   1.0000   1.0000   1.0133   0.8242
     0.7832   0.2118   0.1388  -0.0270  -0.0000  -0.0000  -0.0000  -0.0000
    -0.0000  -0.0000

          k = 0.0000 0.3750-0.5000 ( 11392 PWs)   bands (ev):

   -38.7952 -38.7143 -38.6463 -38.6421 -38.5843 -38.4951 -15.8875 -15.3188
   -15.0355 -14.9710 -14.9197 -14.9031 -14.8603 -14.7927 -14.7924 -14.7658
   -14.6607 -14.6135 -14.5855 -14.5087 -14.5020 -14.4898 -14.4881 -13.8579
     9.9732   9.9913  11.4886  11.6423  12.8446  13.0900  13.2621  13.6290
    13.6539  13.9213  13.9756  14.0435  14.3296  14.7711  15.6168  15.6887
    15.6953  15.6985  15.8995  16.0108  16.6548  16.7504  16.9226  17.2165
    17.2434  17.6343

     occupation numbers 
     1.0000   1.0000   1.0000   1.0000   1.0000   1.0000   1.0000   1.0000
     1.0000   1.0000   1.0000   1.0000   1.0000   1.0000   1.0000   1.0000
     1.0000   1.0000   1.0000   1.0000   1.0000   1.0000   1.0000   1.0000
     1.0000   1.0000   1.0000   1.0000   1.0000   1.0000   1.0000   1.0000
     1.0000   1.0000   1.0000   1.0000   1.0000   1.0000   0.6423   0.4215
     0.4013   0.3916  -0.0055  -0.0351  -0.0000  -0.0000  -0.0000  -0.0000
    -0.0000  -0.0000

          k = 0.0000-0.5000-0.5000 ( 11416 PWs)   bands (ev):

   -38.7943 -38.6782 -38.6473 -38.6473 -38.6160 -38.4951 -15.8883 -15.0320
   -15.0320 -14.9761 -14.9426 -14.8469 -14.8469 -14.8468 -14.8015 -14.8015
   -14.7837 -14.6219 -14.6030 -14.6030 -14.4994 -14.4994 -14.4857 -13.8581
    10.1046  10.1046  11.3208  11.6231  13.0689  13.0689  13.3659  13.5801
    13.7314  13.8903  13.9361  13.9361  14.0875  14.9564  15.7595  15.7595
    16.0345  16.0345  16.2128  16.3282  16.3282  16.5025  16.5373  16.9648
    17.0656  17.4250

     occupation numbers 
     1.0000   1.0000   1.0000   1.0000   1.0000   1.0000   1.0000   1.0000
     1.0000   1.0000   1.0000   1.0000   1.0000   1.0000   1.0000   1.0000
     1.0000   1.0000   1.0000   1.0000   1.0000   1.0000   1.0000   1.0000
     1.0000   1.0000   1.0000   1.0000   1.0000   1.0000   1.0000   1.0000
     1.0000   1.0000   1.0000   1.0000   1.0000   1.0007   0.2204   0.2204
    -0.0330  -0.0330  -0.0075  -0.0015  -0.0015  -0.0001  -0.0000  -0.0000
    -0.0000  -0.0000

          k = 0.1250 0.1250 0.1250 ( 11356 PWs)   bands (ev):

   -38.8374 -38.7564 -38.7564 -38.5076 -38.5076 -38.5047 -15.8516 -15.8516
   -15.6941 -15.0523 -15.0473 -15.0473 -14.7439 -14.6647 -14.6647 -14.5901
   -14.5901 -14.5811 -14.5607 -14.5184 -14.5184 -13.9469 -13.9368 -13.9368
     8.4531  10.1522  12.4826  12.4826  12.6272  12.6272  12.6364  13.0279
    13.3350  13.3350  13.7023  13.9433  13.9433  14.2167  14.5385  15.1738
    15.2912  15.2912  15.8487  15.8487  17.8539  17.8539  18.4781  18.8840
    18.8840  19.1690

     occupation numbers 
     1.0000   1.0000   1.0000   1.0000   1.0000   1.0000   1.0000   1.0000
     1.0000   1.0000   1.0000   1.0000   1.0000   1.0000   1.0000   1.0000
     1.0000   1.0000   1.0000   1.0000   1.0000   1.0000   1.0000   1.0000
     1.0000   1.0000   1.0000   1.0000   1.0000   1.0000   1.0000   1.0000
     1.0000   1.0000   1.0000   1.0000   1.0000   1.0000   1.0000   1.0145
     1.0329   1.0329   0.0468   0.0468  -0.0000  -0.0000  -0.0000  -0.0000
    -0.0000  -0.0000

          k = 0.1250 0.1250 0.2500 ( 11375 PWs)   bands (ev):

   -38.8225 -38.7635 -38.7334 -38.5394 -38.5074 -38.5057 -15.8440 -15.7916
   -15.5734 -15.0438 -15.0396 -14.9962 -14.7790 -14.6910 -14.6644 -14.6021
   -14.5922 -14.5630 -14.5540 -14.5310 -14.5157 -14.1752 -13.9425 -13.9377
     8.7497  10.0776  12.1988  12.3088  12.6130  12.6678  12.8817  13.2529
    13.5035  13.6323  13.8832  13.9208  14.0631  14.1262  14.6230  15.1961
    15.3141  15.3635  15.8397  15.9139  17.3348  17.6001  18.2529  18.5147
    18.7372  18.9692

     occupation numbers 
     1.0000   1.0000   1.0000   1.0000   1.0000   1.0000   1.0000   1.0000
     1.0000   1.0000   1.0000   1.0000   1.0000   1.0000   1.0000   1.0000
     1.0000   1.0000   1.0000   1.0000   1.0000   1.0000   1.0000   1.0000
     1.0000   1.0000   1.0000   1.0000   1.0000   1.0000   1.0000   1.0000
     1.0000   1.0000   1.0000   1.0000   1.0000   1.0000   1.0000   1.0178
     1.0350   1.0327   0.0595  -0.0149  -0.0000  -0.0000  -0.0000  -0.0000
    -0.0000  -0.0000

          k = 0.1250 0.1250 0.3750 ( 11385 PWs)   bands (ev):

   -38.8050 -38.7746 -38.6937 -38.5872 -38.5071 -38.5062 -15.8314 -15.7972
   -15.2878 -15.0351 -15.0326 -14.9242 -14.8067 -14.7090 -14.7015 -14.6148
   -14.6078 -14.5598 -14.5378 -14.5305 -14.5224 -14.4958 -13.9416 -13.9391
     9.1808   9.9336  11.8550  11.9298  12.7350  12.7552  13.0604  13.2141
    13.7756  13.8460  14.0855  14.0883  14.3610  14.7023  14.7754  15.0924
    15.2139  15.2210  15.7682  15.8913  16.9285  17.4125  17.8178  18.1813
    18.3363  18.6758

     occupation numbers 
     1.0000   1.0000   1.0000   1.0000   1.0000   1.0000   1.0000   1.0000
     1.0000   1.0000   1.0000   1.0000   1.0000   1.0000   1.0000   1.0000
     1.0000   1.0000   1.0000   1.0000   1.0000   1.0000   1.0000   1.0000
     1.0000   1.0000   1.0000   1.0000   1.0000   1.0000   1.0000   1.0000
     1.0000   1.0000   1.0000   1.0000   1.0000   1.0000   1.0000   1.0058
     1.0207   1.0219   0.1991   0.0009  -0.0000  -0.0000  -0.0000  -0.0000
    -0.0000  -0.0000

          k = 0.1250 0.1250-0.5000 ( 11374 PWs)   bands (ev):

   -38.7887 -38.7887 -38.6419 -38.6419 -38.5066 -38.5066 -15.8149 -15.8149
   -15.0448 -15.0448 -14.9054 -14.9054 -14.8479 -14.8479 -14.7188 -14.7188
   -14.6173 -14.6173 -14.5337 -14.5337 -14.5224 -14.5224 -13.9404 -13.9404
     9.6280   9.6280  11.7286  11.7286  12.7976  12.7976  13.1423  13.1423
    13.8302  13.8302  14.3849  14.3849  14.6200  14.6200  15.0029  15.0029
    15.2861  15.2861  15.6024  15.6024  17.2549  17.2549  17.5247  17.5247
    18.4144  18.4144

     occupation numbers 
     1.0000   1.0000   1.0000   1.0000   1.0000   1.0000   1.0000   1.0000
     1.0000   1.0000   1.0000   1.0000   1.0000   1.0000   1.0000   1.0000
     1.0000   1.0000   1.0000   1.0000   1.0000   1.0000   1.0000   1.0000
     1.0000   1.0000   1.0000   1.0000   1.0000   1.0000   1.0000   1.0000
     1.0000   1.0000   1.0000   1.0000   1.0000   1.0000   1.0016   1.0016
     1.0323   1.0323   0.6841   0.6841  -0.0000  -0.0000  -0.0000  -0.0000
    -0.0000  -0.0000

          k = 0.1250 0.2500 0.2500 ( 11385 PWs)   bands (ev):

   -38.8075 -38.7527 -38.7281 -38.5433 -38.5355 -38.5066 -15.8199 -15.6535
   -15.5477 -15.0267 -14.9981 -14.9850 -14.8179 -14.7015 -14.6578 -14.6275
   -14.5841 -14.5797 -14.5436 -14.5346 -14.5101 -14.1857 -14.1615 -13.9402
     9.0279  10.0835  12.0967  12.2892  12.5543  12.8045  12.8390  13.3843
    13.5918  13.8016  13.9575  14.0825  14.1414  14.2584  14.6757  15.2932
    15.3510  15.4259  15.6951  15.8936  17.0076  17.2204  18.0519  18.2524
    18.5327  18.7344

     occupation numbers 
     1.0000   1.0000   1.0000   1.0000   1.0000   1.0000   1.0000   1.0000
     1.0000   1.0000   1.0000   1.0000   1.0000   1.0000   1.0000   1.0000
     1.0000   1.0000   1.0000   1.0000   1.0000   1.0000   1.0000   1.0000
     1.0000   1.0000   1.0000   1.0000   1.0000   1.0000   1.0000   1.0000
     1.0000   1.0000   1.0000   1.0000   1.0000   1.0000   1.0000   1.0331
     1.0344   1.0063   0.4018  -0.0010  -0.0000  -0.0000  -0.0000  -0.0000
    -0.0000  -0.0000

          k = 0.1250 0.2500 0.3750 ( 11379 PWs)   bands (ev):

   -38.7931 -38.7543 -38.6943 -38.5882 -38.5389 -38.5067 -15.8174 -15.6168
   -15.2966 -15.0084 -14.9904 -14.9272 -14.8377 -14.7235 -14.6902 -14.6465
   -14.6009 -14.5853 -14.5352 -14.5285 -14.5096 -14.4881 -14.1716 -13.9405
     9.4244  10.0337  11.8698  11.9516  12.6402  12.8843  13.0571  13.4121
    13.7225  13.9369  14.0644  14.2442  14.3162  14.7073  14.8522  15.1745
    15.3679  15.4675  15.7439  15.8400  16.6900  16.9535  17.5244  17.9118
    18.1935  18.3307

     occupation numbers 
     1.0000   1.0000   1.0000   1.0000   1.0000   1.0000   1.0000   1.0000
     1.0000   1.0000   1.0000   1.0000   1.0000   1.0000   1.0000   1.0000
     1.0000   1.0000   1.0000   1.0000   1.0000   1.0000   1.0000   1.0000
     1.0000   1.0000   1.0000   1.0000   1.0000   1.0000   1.0000   1.0000
     1.0000   1.0000   1.0000   1.0000   1.0000   1.0000   1.0001   1.0146
     1.0319   0.9665   0.2610   0.0590  -0.0000  -0.0000  -0.0000  -0.0000
    -0.0000  -0.0000

          k = 0.1250 0.2500-0.5000 ( 11384 PWs)   bands (ev):

   -38.7865 -38.7580 -38.6440 -38.6420 -38.5390 -38.5067 -15.8168 -15.6174
   -15.0368 -15.0158 -14.9070 -14.8911 -14.8815 -14.8355 -14.7401 -14.7116
   -14.6494 -14.6076 -14.5501 -14.5289 -14.5176 -14.5112 -14.1714 -13.9406
     9.8061   9.8206  11.7537  11.7851  12.6604  12.9273  13.1995  13.3599
    13.7918  14.1278  14.1556  14.3076  14.3422  14.5479  15.1948  15.2291
    15.4709  15.5512  15.6737  15.7421  16.8033  16.9609  17.1153  17.3842
    18.0855  18.1205

     occupation numbers 
     1.0000   1.0000   1.0000   1.0000   1.0000   1.0000   1.0000   1.0000
     1.0000   1.0000   1.0000   1.0000   1.0000   1.0000   1.0000   1.0000
     1.0000   1.0000   1.0000   1.0000   1.0000   1.0000   1.0000   1.0000
     1.0000   1.0000   1.0000   1.0000   1.0000   1.0000   1.0000   1.0000
     1.0000   1.0000   1.0000   1.0000   1.0000   1.0000   1.0176   1.0233
     0.9623   0.8180   0.4675   0.2658  -0.0000  -0.0000  -0.0000  -0.0000
    -0.0000  -0.0000

          k = 0.1250 0.3750 0.3750 ( 11385 PWs)   bands (ev):

   -38.7864 -38.7226 -38.6860 -38.5966 -38.5790 -38.5068 -15.8182 -15.3502
   -15.2738 -14.9752 -14.9473 -14.9361 -14.8392 -14.7379 -14.7333 -14.6478
   -14.6313 -14.6030 -14.5321 -14.5217 -14.5047 -14.4901 -14.4706 -13.9407
     9.7572  10.1187  11.7233  11.8093  12.7848  13.0276  13.1150  13.6355
    13.7330  13.8347  14.0367  14.1283  14.5080  14.6782  15.1803  15.4876
    15.5178  15.6710  15.7955  15.8843  16.4266  16.5567  17.1399  17.5981
    17.8454  17.9622

     occupation numbers 
     1.0000   1.0000   1.0000   1.0000   1.0000   1.0000   1.0000   1.0000
     1.0000   1.0000   1.0000   1.0000   1.0000   1.0000   1.0000   1.0000
     1.0000   1.0000   1.0000   1.0000   1.0000   1.0000   1.0000   1.0000
     1.0000   1.0000   1.0000   1.0000   1.0000   1.0000   1.0000   1.0000
     1.0000   1.0000   1.0000   1.0000   1.0000   1.0000   1.0154   0.9395
     0.8886   0.4761   0.1378   0.0069  -0.0003  -0.0000  -0.0000  -0.0000
    -0.0000  -0.0000

          k = 0.1250 0.3750-0.5000 ( 11390 PWs)   bands (ev):

   -38.7842 -38.7129 -38.6463 -38.6427 -38.5851 -38.5068 -15.8187 -15.3194
   -15.0303 -14.9781 -14.9210 -14.8935 -14.8825 -14.8084 -14.7568 -14.7517
   -14.6511 -14.6192 -14.5832 -14.5167 -14.5147 -14.5025 -14.4806 -13.9408
    10.0345  10.0487  11.5774  11.7612  12.8640  13.0532  13.2523  13.6609
    13.6923  13.9652  14.0202  14.0805  14.2661  14.7882  15.5034  15.5115
    15.6969  15.7351  15.9143  16.0006  16.3277  16.6247  16.7721  17.2664
    17.6414  17.6698

     occupation numbers 
     1.0000   1.0000   1.0000   1.0000   1.0000   1.0000   1.0000   1.0000
     1.0000   1.0000   1.0000   1.0000   1.0000   1.0000   1.0000   1.0000
     1.0000   1.0000   1.0000   1.0000   1.0000   1.0000   1.0000   1.0000
     1.0000   1.0000   1.0000   1.0000   1.0000   1.0000   1.0000   1.0000
     1.0000   1.0000   1.0000   1.0000   1.0000   1.0000   0.9144   0.9002
     0.3962   0.2852  -0.0151  -0.0354  -0.0015  -0.0000  -0.0000  -0.0000
    -0.0000  -0.0000

          k = 0.1250-0.5000-0.5000 ( 11368 PWs)   bands (ev):

   -38.7832 -38.6759 -38.6472 -38.6472 -38.6184 -38.5069 -15.8195 -15.0279
   -15.0279 -14.9766 -14.9511 -14.8815 -14.8815 -14.8260 -14.7804 -14.7655
   -14.7655 -14.6263 -14.6004 -14.6004 -14.5079 -14.5079 -14.4979 -13.9408
    10.1590  10.1590  11.4249  11.7528  13.0802  13.0802  13.2859  13.6856
    13.7447  13.9183  13.9183  14.0226  14.0670  14.9168  15.7314  15.7314
    15.8018  15.9595  15.9595  16.2436  16.3569  16.3569  16.5196  17.1322
    17.3133  17.4144

     occupation numbers 
     1.0000   1.0000   1.0000   1.0000   1.0000   1.0000   1.0000   1.0000
     1.0000   1.0000   1.0000   1.0000   1.0000   1.0000   1.0000   1.0000
     1.0000   1.0000   1.0000   1.0000   1.0000   1.0000   1.0000   1.0000
     1.0000   1.0000   1.0000   1.0000   1.0000   1.0000   1.0000   1.0000
     1.0000   1.0000   1.0000   1.0000   1.0000   1.0004   0.2954   0.2954
     0.1250  -0.0320  -0.0320  -0.0051  -0.0009  -0.0009  -0.0000  -0.0000
    -0.0000  -0.0000

          k = 0.2500 0.2500 0.2500 ( 11407 PWs)   bands (ev):

   -38.7887 -38.7341 -38.7341 -38.5425 -38.5425 -38.5337 -15.6462 -15.6462
   -15.5407 -15.0016 -14.9675 -14.9675 -14.8673 -14.6646 -14.6646 -14.6604
   -14.5932 -14.5665 -14.5665 -14.5226 -14.5226 -14.1900 -14.1635 -14.1635
     9.2892  10.1308  12.2016  12.3674  12.3674  12.8935  12.8935  13.4504
    13.4504  13.8811  14.1824  14.2247  14.3527  14.3527  14.7798  15.3531
    15.3531  15.4261  15.6281  15.6281  16.7787  16.7787  17.9696  17.9696
    18.5927  18.6495

     occupation numbers 
     1.0000   1.0000   1.0000   1.0000   1.0000   1.0000   1.0000   1.0000
     1.0000   1.0000   1.0000   1.0000   1.0000   1.0000   1.0000   1.0000
     1.0000   1.0000   1.0000   1.0000   1.0000   1.0000   1.0000   1.0000
     1.0000   1.0000   1.0000   1.0000   1.0000   1.0000   1.0000   1.0000
     1.0000   1.0000   1.0000   1.0000   1.0000   1.0000   1.0000   1.0342
     1.0342   1.0062   0.6085   0.6085  -0.0000  -0.0000  -0.0000  -0.0000
    -0.0000  -0.0000

          k = 0.2500 0.2500 0.3750 ( 11379 PWs)   bands (ev):

   -38.7702 -38.7434 -38.6963 -38.5887 -38.5412 -38.5375 -15.6345 -15.6039
   -15.3047 -14.9828 -14.9650 -14.9097 -14.8865 -14.7043 -14.6812 -14.6523
   -14.6140 -14.5906 -14.5503 -14.5292 -14.5213 -14.4813 -14.1751 -14.1666
     9.6534  10.1403  12.0159  12.0679  12.5691  12.8922  13.1411  13.4768
    13.6729  13.9197  14.1902  14.3276  14.4385  14.8267  14.9545  15.0315
    15.5009  15.5416  15.5434  15.7254  16.3998  16.5772  17.3659  17.6542
    18.4064  18.4944

     occupation numbers 
     1.0000   1.0000   1.0000   1.0000   1.0000   1.0000   1.0000   1.0000
     1.0000   1.0000   1.0000   1.0000   1.0000   1.0000   1.0000   1.0000
     1.0000   1.0000   1.0000   1.0000   1.0000   1.0000   1.0000   1.0000
     1.0000   1.0000   1.0000   1.0000   1.0000   1.0000   1.0000   1.0000
     1.0000   1.0000   1.0000   1.0000   1.0000   1.0001   1.0007   1.0025
     0.9185   0.8397   0.8357   0.3124  -0.0004  -0.0000  -0.0000  -0.0000
    -0.0000  -0.0000

          k = 0.2500 0.2500-0.5000 ( 11382 PWs)   bands (ev):

   -38.7555 -38.7555 -38.6441 -38.6441 -38.5395 -38.5395 -15.6193 -15.6193
   -15.0157 -15.0157 -14.9123 -14.9123 -14.8517 -14.8517 -14.7162 -14.7162
   -14.6283 -14.6283 -14.5456 -14.5456 -14.5252 -14.5252 -14.1706 -14.1706
     9.9883   9.9883  11.9095  11.9095  12.7560  12.7560  13.4009  13.4009
    13.9212  13.9212  14.2679  14.2679  14.4892  14.4892  15.1442  15.1442
    15.6206  15.6206  15.7448  15.7448  16.4613  16.4613  17.0697  17.0697
    18.3219  18.3219

     occupation numbers 
     1.0000   1.0000   1.0000   1.0000   1.0000   1.0000   1.0000   1.0000
     1.0000   1.0000   1.0000   1.0000   1.0000   1.0000   1.0000   1.0000
     1.0000   1.0000   1.0000   1.0000   1.0000   1.0000   1.0000   1.0000
     1.0000   1.0000   1.0000   1.0000   1.0000   1.0000   1.0000   1.0000
     1.0000   1.0000   1.0000   1.0000   1.0000   1.0000   1.0106   1.0106
     0.6309   0.6309   0.2586   0.2586  -0.0001  -0.0001  -0.0000  -0.0000
    -0.0000  -0.0000

          k = 0.2500 0.3750 0.3750 ( 11389 PWs)   bands (ev):

   -38.7563 -38.7160 -38.6901 -38.5950 -38.5820 -38.5397 -15.6210 -15.3437
   -15.2884 -14.9688 -14.9410 -14.9181 -14.8639 -14.7223 -14.6935 -14.6509
   -14.6408 -14.5962 -14.5581 -14.5337 -14.5263 -14.4838 -14.4716 -14.1702
     9.9577  10.2404  11.9464  12.0719  12.6393  13.0497  13.1496  13.6960
    13.7152  13.8520  14.0341  14.4135  14.5533  14.7447  15.1893  15.2096
    15.5056  15.5455  15.7560  15.7590  16.1457  16.2586  17.0806  17.2996
    18.2044  18.2143

     occupation numbers 
     1.0000   1.0000   1.0000   1.0000   1.0000   1.0000   1.0000   1.0000
     1.0000   1.0000   1.0000   1.0000   1.0000   1.0000   1.0000   1.0000
     1.0000   1.0000   1.0000   1.0000   1.0000   1.0000   1.0000   1.0000
     1.0000   1.0000   1.0000   1.0000   1.0000   1.0000   1.0000   1.0000
     1.0000   1.0000   1.0000   1.0000   1.0000   1.0000   1.0168   1.0200
     0.9105   0.8310   0.2293   0.2218  -0.0155  -0.0042  -0.0000  -0.0000
    -0.0000  -0.0000

          k = 0.2500 0.3750-0.5000 ( 11382 PWs)   bands (ev):

   -38.7528 -38.7095 -38.6463 -38.6443 -38.5870 -38.5400 -15.6212 -15.3207
   -15.0165 -14.9893 -14.9393 -14.9213 -14.8545 -14.8051 -14.7328 -14.7119
   -14.6329 -14.6314 -14.5777 -14.5466 -14.5317 -14.5279 -14.4776 -14.1700
    10.1959  10.2015  11.8343  12.0366  12.8706  12.8802  13.3424  13.6421
    13.8028  13.9318  14.1021  14.1531  14.4359  14.7742  15.1872  15.3587
    15.6932  15.7027  15.8420  15.9364  16.0778  16.2661  16.7468  16.9359
    17.9745  18.1582

     occupation numbers 
     1.0000   1.0000   1.0000   1.0000   1.0000   1.0000   1.0000   1.0000
     1.0000   1.0000   1.0000   1.0000   1.0000   1.0000   1.0000   1.0000
     1.0000   1.0000   1.0000   1.0000   1.0000   1.0000   1.0000   1.0000
     1.0000   1.0000   1.0000   1.0000   1.0000   1.0000   1.0000   1.0000
     1.0000   1.0000   1.0000   1.0000   1.0000   1.0000   1.0164   1.0335
     0.4075   0.3788   0.0561  -0.0255  -0.0266  -0.0038  -0.0000  -0.0000
    -0.0000  -0.0000

          k = 0.2500-0.5000-0.5000 ( 11392 PWs)   bands (ev):

   -38.7517 -38.6692 -38.6472 -38.6472 -38.6251 -38.5402 -15.6219 -15.0171
   -15.0171 -14.9778 -14.9646 -14.9251 -14.9251 -14.7775 -14.7733 -14.7168
   -14.7168 -14.6384 -14.5940 -14.5940 -14.5327 -14.5312 -14.5312 -14.1697
    10.3031  10.3031  11.7281  12.0791  13.0340  13.0340  13.1671  13.7395
    13.8571  13.9612  13.9612  13.9747  14.4237  14.7887  15.2534  15.6458
    15.6458  15.8900  15.8900  15.9456  16.2511  16.2511  16.4944  16.6773
    17.6869  18.0641

     occupation numbers 
     1.0000   1.0000   1.0000   1.0000   1.0000   1.0000   1.0000   1.0000
     1.0000   1.0000   1.0000   1.0000   1.0000   1.0000   1.0000   1.0000
     1.0000   1.0000   1.0000   1.0000   1.0000   1.0000   1.0000   1.0000
     1.0000   1.0000   1.0000   1.0000   1.0000   1.0000   1.0000   1.0000
     1.0000   1.0000   1.0000   1.0000   1.0000   1.0000   1.0274   0.5541
     0.5541   0.0019   0.0019  -0.0286  -0.0046  -0.0046  -0.0001  -0.0000
    -0.0000  -0.0000

          k = 0.3750 0.3750 0.3750 ( 11425 PWs)   bands (ev):

   -38.7204 -38.6968 -38.6968 -38.5924 -38.5924 -38.5822 -15.3339 -15.3339
   -15.2929 -14.9745 -14.9610 -14.8618 -14.8618 -14.7128 -14.6984 -14.6546
   -14.6546 -14.5797 -14.5797 -14.5494 -14.5494 -14.4836 -14.4745 -14.4745
    10.2111  10.3697  12.1524  12.3867  12.3867  13.1304  13.1304  13.6826
    13.8512  13.8512  13.9443  14.6317  14.6317  14.6496  15.1994  15.1994
    15.6076  15.6585  15.6585  15.7852  15.9424  15.9424  16.9162  16.9162
    18.3532  18.3532

     occupation numbers 
     1.0000   1.0000   1.0000   1.0000   1.0000   1.0000   1.0000   1.0000
     1.0000   1.0000   1.0000   1.0000   1.0000   1.0000   1.0000   1.0000
     1.0000   1.0000   1.0000   1.0000   1.0000   1.0000   1.0000   1.0000
     1.0000   1.0000   1.0000   1.0000   1.0000   1.0000   1.0000   1.0000
     1.0000   1.0000   1.0000   1.0000   1.0000   1.0000   1.0183   1.0183
     0.6691   0.5149   0.5149   0.1597  -0.0276  -0.0276  -0.0000  -0.0000
    -0.0000  -0.0000

          k = 0.3750 0.3750-0.5000 ( 11406 PWs)   bands (ev):

   -38.7057 -38.7057 -38.6463 -38.6463 -38.5888 -38.5888 -15.3219 -15.3219
   -14.9986 -14.9986 -14.9541 -14.9541 -14.8089 -14.8089 -14.6999 -14.6999
   -14.6322 -14.6322 -14.5741 -14.5741 -14.5556 -14.5556 -14.4782 -14.4782
    10.3833  10.3833  12.2144  12.2144  12.8040  12.8040  13.3959  13.3959
    13.9523  13.9523  14.1598  14.1598  14.6728  14.6728  15.2888  15.2888
    15.6827  15.6827  15.7776  15.7776  16.0241  16.0241  16.6143  16.6143
    18.2239  18.2239

     occupation numbers 
     1.0000   1.0000   1.0000   1.0000   1.0000   1.0000   1.0000   1.0000
     1.0000   1.0000   1.0000   1.0000   1.0000   1.0000   1.0000   1.0000
     1.0000   1.0000   1.0000   1.0000   1.0000   1.0000   1.0000   1.0000
     1.0000   1.0000   1.0000   1.0000   1.0000   1.0000   1.0000   1.0000
     1.0000   1.0000   1.0000   1.0000   1.0000   1.0000   1.0326   1.0326
     0.4399   0.4399   0.1768   0.1768  -0.0341  -0.0341  -0.0000  -0.0000
    -0.0000  -0.0000

          k = 0.3750-0.5000-0.5000 ( 11400 PWs)   bands (ev):

   -38.7041 -38.6591 -38.6472 -38.6472 -38.6353 -38.5896 -15.3224 -15.0026
   -15.0026 -14.9788 -14.9739 -14.9591 -14.9591 -14.7850 -14.7156 -14.6731
   -14.6731 -14.6529 -14.5872 -14.5872 -14.5854 -14.5630 -14.5630 -14.4790
    10.4717  10.4717  12.2015  12.4610  12.8788  12.8788  13.0179  13.3756
    14.0466  14.0646  14.1571  14.1571  14.5681  14.6276  15.2772  15.5921
    15.5921  15.7363  15.7363  15.8872  16.0765  16.0765  16.2961  16.4309
    18.0660  18.4023

     occupation numbers 
     1.0000   1.0000   1.0000   1.0000   1.0000   1.0000   1.0000   1.0000
     1.0000   1.0000   1.0000   1.0000   1.0000   1.0000   1.0000   1.0000
     1.0000   1.0000   1.0000   1.0000   1.0000   1.0000   1.0000   1.0000
     1.0000   1.0000   1.0000   1.0000   1.0000   1.0000   1.0000   1.0000
     1.0000   1.0000   1.0000   1.0000   1.0000   1.0000   1.0311   0.7133
     0.7133   0.2817   0.2817   0.0043  -0.0268  -0.0268  -0.0024  -0.0002
    -0.0000  -0.0000

          k =-0.5000-0.5000-0.5000 ( 11296 PWs)   bands (ev):

   -38.6472 -38.6472 -38.6472 -38.6472 -38.6472 -38.6472 -14.9899 -14.9899
   -14.9781 -14.9781 -14.9781 -14.9781 -14.9781 -14.9781 -14.6489 -14.6489
   -14.6489 -14.6489 -14.6489 -14.6489 -14.5843 -14.5843 -14.5843 -14.5843
    10.5518  10.5518  12.7874  12.7874  12.7874  12.7874  12.7874  12.7874
    14.2998  14.2998  14.2998  14.2998  14.2998  14.2998  15.5825  15.5825
    15.5825  15.5825  16.0295  16.0295  16.0295  16.0295  16.0295  16.0295
    18.4505  18.4506

     occupation numbers 
     1.0000   1.0000   1.0000   1.0000   1.0000   1.0000   1.0000   1.0000
     1.0000   1.0000   1.0000   1.0000   1.0000   1.0000   1.0000   1.0000
     1.0000   1.0000   1.0000   1.0000   1.0000   1.0000   1.0000   1.0000
     1.0000   1.0000   1.0000   1.0000   1.0000   1.0000   1.0000   1.0000
     1.0000   1.0000   1.0000   1.0000   1.0000   1.0000   0.7394   0.7394
     0.7394   0.7394  -0.0336  -0.0336  -0.0336  -0.0336  -0.0336  -0.0336
    -0.0000  -0.0000

     the Fermi energy is    15.6633 ev

!    total energy              =    -718.39565194 Ry
     estimated scf accuracy    <          9.1E-11 Ry
     smearing contrib. (-TS)   =      -0.00299746 Ry
     internal energy E=F+TS    =    -718.39265448 Ry

     The total energy is F=E-TS. E is the sum of the following terms:
     one-electron contribution =    -155.93440689 Ry
     hartree contribution      =     117.75647937 Ry
     xc contribution           =    -116.71111467 Ry
     ewald contribution        =    -563.50361229 Ry

     convergence has been achieved in  13 iterations

     Forces acting on atoms (cartesian axes, Ry/au):

     atom    1 type  2   force =     0.00000000    0.00000000    0.00000000
     atom    2 type  2   force =     0.00000000    0.00000000    0.00000000
     atom    3 type  1   force =     0.00000000    0.00000000    0.00000000
     atom    4 type  1   force =     0.00000000    0.00000000    0.00000000
     atom    5 type  1   force =     0.00000000   -0.00000000    0.00000000
     atom    6 type  1   force =     0.00000000    0.00000000    0.00000000
     atom    7 type  1   force =     0.00000000    0.00000000    0.00000000
     atom    8 type  1   force =     0.00000000    0.00000000   -0.00000000
     The non-local contrib.  to forces
     atom    1 type  2   force =     0.00000000    0.00000000    0.00000000
     atom    2 type  2   force =     0.00000000    0.00000000    0.00000000
     atom    3 type  1   force =    -0.00000000    0.00000000    0.00000000
     atom    4 type  1   force =     0.00000000    0.00000000    0.00000000
     atom    5 type  1   force =     0.00000000    0.00000000   -0.00000000
     atom    6 type  1   force =    -0.00000000    0.00000000    0.00000000
     atom    7 type  1   force =     0.00000000    0.00000000    0.00000000
     atom    8 type  1   force =     0.00000000    0.00000000   -0.00000000
     The ionic contribution  to forces
     atom    1 type  2   force =    -0.00000000   -0.00000000   -0.00000000
     atom    2 type  2   force =     0.00000000    0.00000000    0.00000000
     atom    3 type  1   force =    -0.00000000   -0.00000000    0.00000000
     atom    4 type  1   force =     0.00000000    0.00000000    0.00000000
     atom    5 type  1   force =    -0.00000000   -0.00000000    0.00000000
     atom    6 type  1   force =    -0.00000000    0.00000000   -0.00000000
     atom    7 type  1   force =    -0.00000000    0.00000000   -0.00000000
     atom    8 type  1   force =    -0.00000000   -0.00000000    0.00000000
     The local contribution  to forces
     atom    1 type  2   force =     0.00000000    0.00000000   -0.00000000
     atom    2 type  2   force =    -0.00000000   -0.00000000   -0.00000000
     atom    3 type  1   force =    -0.00000000    0.00000000    0.00000000
     atom    4 type  1   force =     0.00000000   -0.00000000    0.00000000
     atom    5 type  1   force =     0.00000000    0.00000000    0.00000000
     atom    6 type  1   force =     0.00000000   -0.00000000   -0.00000000
     atom    7 type  1   force =     0.00000000    0.00000000   -0.00000000
     atom    8 type  1   force =    -0.00000000    0.00000000    0.00000000
     The core correction contribution to forces
     atom    1 type  2   force =     0.00000000    0.00000000    0.00000000
     atom    2 type  2   force =    -0.00000000    0.00000000   -0.00000000
     atom    3 type  1   force =     0.00000000   -0.00000000   -0.00000000
     atom    4 type  1   force =    -0.00000000    0.00000000   -0.00000000
     atom    5 type  1   force =     0.00000000    0.00000000   -0.00000000
     atom    6 type  1   force =    -0.00000000   -0.00000000   -0.00000000
     atom    7 type  1   force =    -0.00000000   -0.00000000   -0.00000000
     atom    8 type  1   force =     0.00000000   -0.00000000   -0.00000000
     The Hubbard contrib.    to forces
     atom    1 type  2   force =     0.00000000    0.00000000    0.00000000
     atom    2 type  2   force =     0.00000000    0.00000000    0.00000000
     atom    3 type  1   force =     0.00000000    0.00000000    0.00000000
     atom    4 type  1   force =     0.00000000    0.00000000    0.00000000
     atom    5 type  1   force =     0.00000000    0.00000000    0.00000000
     atom    6 type  1   force =     0.00000000    0.00000000    0.00000000
     atom    7 type  1   force =     0.00000000    0.00000000    0.00000000
     atom    8 type  1   force =     0.00000000    0.00000000    0.00000000
     The SCF correction term to forces
     atom    1 type  2   force =     0.00000000   -0.00000000    0.00000000
     atom    2 type  2   force =    -0.00000000   -0.00000000    0.00000000
     atom    3 type  1   force =     0.00000000   -0.00000000   -0.00000000
     atom    4 type  1   force =    -0.00000000    0.00000000   -0.00000000
     atom    5 type  1   force =    -0.00000000   -0.00000000    0.00000000
     atom    6 type  1   force =    -0.00000000    0.00000000    0.00000000
     atom    7 type  1   force =     0.00000000    0.00000000   -0.00000000
     atom    8 type  1   force =    -0.00000000   -0.00000000    0.00000000

     Total force =     0.000000     Total SCF correction =     0.000000


     Computing stress (Cartesian axis) and pressure

          total   stress  (Ry/bohr**3)                   (kbar)     P=       10.49
   0.00007134   0.00000000   0.00000000           10.49        0.00        0.00
   0.00000000   0.00007134   0.00000000            0.00       10.49        0.00
   0.00000000   0.00000000   0.00007134            0.00        0.00       10.49

     kinetic stress (kbar)  27394.14      0.00      0.00
                                0.00  27394.14      0.00
                                0.00      0.00  27394.14

     local   stress (kbar)  -9755.36      0.00      0.00
                                0.00  -9755.36      0.00
                                0.00      0.00  -9755.36

     nonloc. stress (kbar)  10807.05      0.00      0.00
                                0.00  10807.05      0.00
                                0.00      0.00  10807.05

     hartree stress (kbar)   6131.22     -0.00     -0.00
                               -0.00   6131.22     -0.00
                               -0.00     -0.00   6131.22

     exc-cor stress (kbar)   -254.92     -0.00     -0.00
                               -0.00   -254.92      0.00
                               -0.00      0.00   -254.92

     corecor stress (kbar)  -4971.71      0.00      0.00
                                0.00  -4971.71      0.00
                                0.00      0.00  -4971.71

     ewald   stress (kbar) -29339.93      0.00      0.00
                                0.00 -29339.93      0.00
                                0.00      0.00 -29339.93

     hubbard stress (kbar)      0.00      0.00      0.00
                                0.00      0.00      0.00
                                0.00      0.00      0.00

     DFT-D   stress (kbar)      0.00      0.00      0.00
                                0.00      0.00      0.00
                                0.00      0.00      0.00

     XDM     stress (kbar)      0.00      0.00      0.00
                                0.00      0.00      0.00
                                0.00      0.00      0.00

     dft-nl  stress (kbar)      0.00      0.00      0.00
                                0.00      0.00      0.00
                                0.00      0.00      0.00

     TS-vdW  stress (kbar)      0.00      0.00      0.00
                                0.00      0.00      0.00
                                0.00      0.00      0.00

     MDB     stress (kbar)      0.00      0.00      0.00
                                0.00      0.00      0.00
                                0.00      0.00      0.00

     3D-RISM stress (kbar)      0.00      0.00      0.00
                                0.00      0.00      0.00
                                0.00      0.00      0.00


     Writing all to output data dir ./out/nb3al.save/ :
     XML data file, charge density, pseudopotentials, collected wavefunctions

     init_run     :     15.32s CPU     57.40s WALL (       1 calls)
     electrons    :    384.14s CPU   1441.09s WALL (       1 calls)
     forces       :      5.02s CPU     20.69s WALL (       1 calls)
     stress       :     17.92s CPU     67.19s WALL (       1 calls)

     Called by init_run:
     wfcinit      :     13.28s CPU     49.22s WALL (       1 calls)
     wfcinit:atom :      0.08s CPU      0.29s WALL (      35 calls)
     wfcinit:wfcr :     12.56s CPU     46.86s WALL (      35 calls)
     potinit      :      0.51s CPU      1.79s WALL (       1 calls)
     hinit0       :      0.73s CPU      2.50s WALL (       1 calls)

     Called by electrons:
     c_bands      :    317.11s CPU   1168.35s WALL (      14 calls)
     sum_band     :     56.21s CPU    223.26s WALL (      14 calls)
     v_of_rho     :      1.82s CPU      6.78s WALL (      14 calls)
     v_h          :      0.14s CPU      0.60s WALL (      14 calls)
     v_xc         :      2.32s CPU      8.60s WALL (      16 calls)
     newd         :      9.27s CPU     44.44s WALL (      14 calls)
     mix_rho      :      0.24s CPU      1.06s WALL (      14 calls)

     Called by c_bands:
     init_us_2    :      3.86s CPU     12.67s WALL (    1085 calls)
     cegterg      :    304.64s CPU   1121.92s WALL (     490 calls)

     Called by sum_band:
     sum_band:wei :      0.06s CPU      0.29s WALL (      14 calls)
     sum_band:loo :     45.79s CPU    171.45s WALL (      14 calls)
     sum_band:buf :      0.36s CPU      1.76s WALL (     490 calls)
     sum_band:ini :      1.69s CPU      5.67s WALL (     490 calls)
     sum_band:cal :      6.06s CPU     21.93s WALL (     490 calls)
     sum_band:bec :      0.09s CPU      0.17s WALL (     490 calls)
     addusdens    :      9.28s CPU     47.63s WALL (      14 calls)
                                        0.00s GPU  (      14 calls)
     addusd:skk   :      0.08s CPU      0.25s WALL (      28 calls)
                                        0.00s GPU  (      28 calls)

     Called by *egterg:
     cdiaghg      :     16.70s CPU     59.43s WALL (    2273 calls)
     cegterg:over :     22.09s CPU     80.70s WALL (    1818 calls)
     cegterg:upda :      5.63s CPU     18.01s WALL (    1818 calls)
     cegterg:last :     12.10s CPU     41.99s WALL (    1119 calls)
     h_psi        :    229.78s CPU    852.55s WALL (    2343 calls)
     s_psi        :     10.61s CPU     39.49s WALL (    2343 calls)
     g_psi        :      1.14s CPU      4.56s WALL (    1818 calls)

     Called by h_psi:
     h_psi:calbec :     19.71s CPU     74.40s WALL (    2343 calls)
     vloc_psi     :    198.31s CPU    739.80s WALL (    2343 calls)
                                        0.00s GPU  (    2343 calls)
     add_vuspsi   :     11.15s CPU     36.78s WALL (    2343 calls)

     General routines
     calbec       :     33.42s CPU    124.85s WALL (    3428 calls)
     fft          :      2.01s CPU      7.89s WALL (     206 calls)
     ffts         :      0.37s CPU      1.37s WALL (      28 calls)
     fftw         :    220.87s CPU    847.97s WALL (  164178 calls)
     interpolate  :      0.44s CPU      1.58s WALL (      14 calls)

     Parallel routines

     PWSCF        :   7m 3.79s CPU  26m33.20s WALL


   This run was terminated on:   8: 4:59  27May2026            

=------------------------------------------------------------------------------=
   JOB DONE.
=------------------------------------------------------------------------------=
