
     Program PHONON v.7.5 starts on  3Jun2026 at  2:21:42 

     This program is part of the open-source Quantum ESPRESSO suite
     for quantum simulation of materials; please cite
         "P. Giannozzi et al., J. Phys.:Condens. Matter 21 395502 (2009);
         "P. Giannozzi et al., J. Phys.:Condens. Matter 29 465901 (2017);
         "P. Giannozzi et al., J. Chem. Phys. 152 154105 (2020);
          URL http://www.quantum-espresso.org", 
     in publications or presentations arising from this work. More details at
     http://www.quantum-espresso.org/quote

     Parallel version (MPI & OpenMP), running on       8 processor cores
     Number of MPI processes:                 4
     Threads/MPI process:                     2

     MPI processes distributed on     1 nodes
     5945 MiB available memory on the printing compute node when the environment starts

     Reading input from ph.in
     Run is not recoverable starting from scratch

     Reading xml data from directory:

     ./out/baauh3.save/

     K-points division:     npool     =       4
     Subspace diagonalization in iterative solution of the eigenvalue problem:
     a serial algorithm will be used

     file Ba.pbe-spn-rrkjus_psl.1.0.0.UPF: wavefunction(s)  5S 6S renormalized

     IMPORTANT: XC functional enforced from input :
     Exchange-correlation= PBE
                           (   1   4   3   4   0   0   0)
     Any further DFT definition will be discarded
     Please, verify this is what you really want


     G-vector sticks info
     --------------------
     sticks:   dense  smooth     PW     G-vecs:    dense   smooth      PW
     Sum        2933    1465    421               119177    42115    6619

     Using Slab Decomposition

     Reading collected, re-writing distributed wavefunctions in ./out/


     Dynamical matrices for ( 4, 4, 4)  uniform grid of q-points
     (  18 q-points):
       N         xq(1)         xq(2)         xq(3) 
       1   0.000000000   0.000000000   0.000000000
       2   0.000000003   0.000000001   0.250000000
       3  -0.000000006  -0.000000002  -0.500000000
       4  -0.000000008   0.249999377   0.000000001
       5  -0.000000005   0.249999377   0.250000001
       6  -0.000000015   0.249999375  -0.499999999
       7   0.000000017  -0.499998753  -0.000000002
       8   0.000000020  -0.499998753   0.249999998
       9   0.000000011  -0.499998755  -0.500000002
      10   0.250000003  -0.000000008   0.250000003
      11   0.249999994  -0.000000010  -0.499999997
      12   0.249999995   0.249999369   0.250000004
      13   0.249999985   0.249999367  -0.499999996
      14   0.250000020  -0.499998761   0.250000002
      15   0.250000011  -0.499998763  -0.499999998
      16  -0.500000006   0.000000015  -0.500000006
      17  -0.500000015   0.249999392  -0.500000005
      18  -0.499999989  -0.499998738  -0.500000008

     Number and degeneracy of irreps per q-point
       N         xq(1)         xq(2)         xq(3)   N irreps
       1   0.000000000   0.000000000   0.000000000      10
        2   1   2   1   1   2   2   1   1   2
       2   0.000000003   0.000000001   0.250000000      15
     No degeneracy
       3  -0.000000006  -0.000000002  -0.500000000      15
     No degeneracy
       4  -0.000000008   0.249999377   0.000000001      10
        2   1   2   2   1   1   2   1   1   2
       5  -0.000000005   0.249999377   0.250000001      15
     No degeneracy
       6  -0.000000015   0.249999375  -0.499999999      15
     No degeneracy
       7   0.000000017  -0.499998753  -0.000000002      10
        2   1   2   1   1   2   2   1   1   2
       8   0.000000020  -0.499998753   0.249999998      15
     No degeneracy
       9   0.000000011  -0.499998755  -0.500000002      15
     No degeneracy
      10   0.250000003  -0.000000008   0.250000003      15
     No degeneracy
      11   0.249999994  -0.000000010  -0.499999997      15
     No degeneracy
      12   0.249999995   0.249999369   0.250000004      15
     No degeneracy
      13   0.249999985   0.249999367  -0.499999996      15
     No degeneracy
      14   0.250000020  -0.499998761   0.250000002      15
     No degeneracy
      15   0.250000011  -0.499998763  -0.499999998      15
     No degeneracy
      16  -0.500000006   0.000000015  -0.500000006      11
        2   1   1   2   2   2   1   1   1   1   1
      17  -0.500000015   0.249999392  -0.500000005      11
        2   1   1   2   2   2   1   1   1   1   1
      18  -0.499999989  -0.499998738  -0.500000008      11
        2   1   1   2   2   2   1   1   1   1   1

     Saving dvscf to file. Distribute only q points, not irreducible representations.

     Calculation of q =    0.0000000   0.0000000   0.0000000

     BaAuH3 phonon + electron-phonon 4x4x4 q (RTSC A10 - SrAuH3 A-site Ba-varian

     bravais-lattice index     =            0
     lattice parameter (alat)  =       7.5797  a.u.
     unit-cell volume          =     435.4739 (a.u.)^3
     number of atoms/cell      =            5
     number of atomic types    =            3
     kinetic-energy cut-off    =      80.0000  Ry
     charge density cut-off    =     640.0000  Ry
     convergence threshold     =      1.0E-14
     beta                      =       0.7000
     number of iterations used =            4
     Exchange-correlation= PBE
                           (   1   4   3   4   0   0   0)


     celldm(1)=    7.57973  celldm(2)=    0.00000  celldm(3)=    0.00000
     celldm(4)=    0.00000  celldm(5)=    0.00000  celldm(6)=    0.00000

     crystal axes: (cart. coord. in units of alat)
               a(1) = (  1.0000  0.0000 -0.0000 )  
               a(2) = (  0.0000  1.0000 -0.0000 )  
               a(3) = ( -0.0000 -0.0000  1.0000 )  

     reciprocal axes: (cart. coord. in units 2 pi/alat)
               b(1) = (  1.0000 -0.0000  0.0000 )  
               b(2) = ( -0.0000  1.0000  0.0000 )  
               b(3) = (  0.0000  0.0000  1.0000 )  


     Atoms inside the unit cell: 

     Cartesian axes

     site n.  atom      mass           positions (alat units)
        1  Ba    137.3270   tau(    1) = (    0.50000    0.50000    0.50000  )
        2  Au    196.9670   tau(    2) = (   -0.00000   -0.00000    0.00000  )
        3  H       1.0080   tau(    3) = (    0.50000   -0.00000    0.00000  )
        4  H       1.0080   tau(    4) = (   -0.00000    0.50000    0.00000  )
        5  H       1.0080   tau(    5) = (   -0.00000   -0.00000    0.50000  )

     Computing dynamical matrix for 
                    q = (   0.0000000   0.0000000   0.0000000 )

     17 Sym.Ops. (with q -> -q+G )


     G cutoff =  931.3815  ( 119177 G-vectors)     FFT grid: ( 64, 64, 64)
     G cutoff =  465.6908  (  42115 G-vectors)  smooth grid: ( 45, 45, 45)

     number of k points=   405  Methfessel-Paxton smearing, width (Ry)=  0.0200

     PseudoPot. # 1 for Ba read from file:
     ./pseudo/Ba.pbe-spn-rrkjus_psl.1.0.0.UPF
     MD5 check sum: 9f28e7b3efa99dece8b35669272401d8
     Pseudo is Ultrasoft + core correction, Zval = 10.0
     Generated using &quot;atomic&quot; code by A. Dal Corso  v.6.2.2
     Using radial grid of 1251 points,  7 beta functions with: 
                l(1) =   0
                l(2) =   0
                l(3) =   0
                l(4) =   1
                l(5) =   1
                l(6) =   2
                l(7) =   2
     Q(r) pseudized with 0 coefficients 


     PseudoPot. # 2 for Au read from file:
     ./pseudo/Au.pbe-n-rrkjus_psl.1.0.0.UPF
     MD5 check sum: d7e77ba19504afed2c9b41c931dde4f0
     Pseudo is Ultrasoft + core correction, Zval = 11.0
     Generated using &quot;atomic&quot; code by A. Dal Corso  v.6.3
     Using radial grid of 1279 points,  6 beta functions with: 
                l(1) =   0
                l(2) =   0
                l(3) =   1
                l(4) =   1
                l(5) =   2
                l(6) =   2
     Q(r) pseudized with 0 coefficients 


     PseudoPot. # 3 for H  read from file:
     ./pseudo/H.pbe-rrkjus_psl.1.0.0.UPF
     MD5 check sum: 3f4114867bd07edc7f1424d066fc1888
     Pseudo is Ultrasoft, Zval =  1.0
     Generated using &quot;atomic&quot; code by A. Dal Corso  v.6.3MaX
     Using radial grid of  929 points,  2 beta functions with: 
                l(1) =   0
                l(2) =   0
     Q(r) pseudized with 0 coefficients 



     Atomic displacements:
     There are   10 irreducible representations

     Representation     1      2 modes -  To be done

     Representation     2      1 modes -  To be done

     Representation     3      2 modes -  To be done

     Representation     4      1 modes -  To be done

     Representation     5      1 modes -  To be done

     Representation     6      2 modes -  To be done

     Representation     7      2 modes -  To be done

     Representation     8      1 modes -  To be done

     Representation     9      1 modes -  To be done

     Representation    10      2 modes -  To be done



     Alpha used in Ewald sum =   2.8000
     PHONON       :   2m 0.88s CPU   1m 7.78s WALL



     Representation #   1 modes #   1   2

     Self-consistent Calculation

     Pert. #  1: Fermi energy shift (Ry) =     0.0000E+00     1.1285E-36
     Pert. #  2: Fermi energy shift (Ry) =    -5.2334E-24    -2.3510E-38

      iter #   1 total cpu time :   176.8 secs   av.it.:   4.4
      thresh= 1.000E-02 alpha_mix =  0.700 |ddv_scf|^2 =  4.321E-09

     Pert. #  1: Fermi energy shift (Ry) =    -1.3235E-23     0.0000E+00
     Pert. #  2: Fermi energy shift (Ry) =     1.3816E-23     2.5255E-40

      iter #   2 total cpu time :   437.6 secs   av.it.:  17.1
      thresh= 6.573E-06 alpha_mix =  0.700 |ddv_scf|^2 =  9.417E-10

     Pert. #  1: Fermi energy shift (Ry) =    -2.6470E-23     7.3468E-40
     Pert. #  2: Fermi energy shift (Ry) =     2.2588E-23    -9.1835E-41

      iter #   3 total cpu time :   695.4 secs   av.it.:  17.4
      thresh= 3.069E-06 alpha_mix =  0.700 |ddv_scf|^2 =  1.778E-09

     Pert. #  1: Fermi energy shift (Ry) =     1.3235E-23    -1.6071E-40
     Pert. #  2: Fermi energy shift (Ry) =    -1.6163E-23     1.0905E-40

      iter #   4 total cpu time :   927.3 secs   av.it.:  15.6
      thresh= 4.216E-06 alpha_mix =  0.700 |ddv_scf|^2 =  8.718E-10

     Pert. #  1: Fermi energy shift (Ry) =     0.0000E+00    -1.8367E-40
     Pert. #  2: Fermi energy shift (Ry) =     1.2761E-23    -4.8788E-40

      iter #   5 total cpu time :  1163.2 secs   av.it.:  15.3
      thresh= 2.953E-06 alpha_mix =  0.700 |ddv_scf|^2 =  8.268E-13

     Pert. #  1: Fermi energy shift (Ry) =    -2.6470E-23    -1.1479E-41
     Pert. #  2: Fermi energy shift (Ry) =     6.2487E-24     5.3810E-42

      iter #   6 total cpu time :  1400.4 secs   av.it.:  16.0
      thresh= 9.093E-08 alpha_mix =  0.700 |ddv_scf|^2 =  1.372E-15

     End of self-consistent calculation

     Convergence has been achieved 


     Representation #   2 mode #   3

     Self-consistent Calculation

     Pert. #  1: Fermi energy shift (Ry) =    -2.6470E-23    -1.5046E-36

      iter #   1 total cpu time :  1460.4 secs   av.it.:   4.4
      thresh= 1.000E-02 alpha_mix =  0.700 |ddv_scf|^2 =  2.752E-08

     Pert. #  1: Fermi energy shift (Ry) =    -7.9409E-23     0.0000E+00

      iter #   2 total cpu time :  1576.9 secs   av.it.:  15.4
      thresh= 1.659E-05 alpha_mix =  0.700 |ddv_scf|^2 =  7.145E-09

     Pert. #  1: Fermi energy shift (Ry) =     0.0000E+00    -3.6734E-40

      iter #   3 total cpu time :  1694.5 secs   av.it.:  15.6
      thresh= 8.453E-06 alpha_mix =  0.700 |ddv_scf|^2 =  5.874E-09

     Pert. #  1: Fermi energy shift (Ry) =    -5.2940E-23     0.0000E+00

      iter #   4 total cpu time :  1802.6 secs   av.it.:  13.9
      thresh= 7.665E-06 alpha_mix =  0.700 |ddv_scf|^2 =  2.746E-09

     Pert. #  1: Fermi energy shift (Ry) =     5.2940E-23    -7.3468E-40

      iter #   5 total cpu time :  1907.1 secs   av.it.:  13.5
      thresh= 5.240E-06 alpha_mix =  0.700 |ddv_scf|^2 =  3.311E-11

     Pert. #  1: Fermi energy shift (Ry) =    -2.6470E-23     1.3775E-40

      iter #   6 total cpu time :  2015.5 secs   av.it.:  14.2
      thresh= 5.754E-07 alpha_mix =  0.700 |ddv_scf|^2 =  3.222E-13

     Pert. #  1: Fermi energy shift (Ry) =     5.2940E-23    -5.7397E-42

      iter #   7 total cpu time :  2123.8 secs   av.it.:  14.0
      thresh= 5.677E-08 alpha_mix =  0.700 |ddv_scf|^2 =  3.265E-15

     End of self-consistent calculation

     Convergence has been achieved 


     Representation #   3 modes #   4   5

     Self-consistent Calculation

     Pert. #  1: Fermi energy shift (Ry) =    -5.2940E-23    -5.6424E-37
     Pert. #  2: Fermi energy shift (Ry) =    -4.7021E-24     1.1755E-37

      iter #   1 total cpu time :  2272.2 secs   av.it.:   8.7
      thresh= 1.000E-02 alpha_mix =  0.700 |ddv_scf|^2 =  6.231E-07

     Pert. #  1: Fermi energy shift (Ry) =    -2.6470E-23     1.4694E-39
     Pert. #  2: Fermi energy shift (Ry) =    -9.1276E-24    -2.2041E-39

      iter #   2 total cpu time :  2523.1 secs   av.it.:  17.0
      thresh= 7.894E-05 alpha_mix =  0.700 |ddv_scf|^2 =  1.787E-07

     Pert. #  1: Fermi energy shift (Ry) =    -4.3013E-23     0.0000E+00
     Pert. #  2: Fermi energy shift (Ry) =    -2.2890E-23    -3.6734E-40

      iter #   3 total cpu time :  2774.2 secs   av.it.:  17.0
      thresh= 4.228E-05 alpha_mix =  0.700 |ddv_scf|^2 =  3.023E-08

     Pert. #  1: Fermi energy shift (Ry) =     3.3087E-24     1.8367E-40
     Pert. #  2: Fermi energy shift (Ry) =    -7.6352E-24    -2.7551E-40

      iter #   4 total cpu time :  3015.9 secs   av.it.:  16.2
      thresh= 1.739E-05 alpha_mix =  0.700 |ddv_scf|^2 =  5.795E-08

     Pert. #  1: Fermi energy shift (Ry) =     4.1359E-23    -3.6734E-40
     Pert. #  2: Fermi energy shift (Ry) =     4.1512E-24    -3.2142E-40

      iter #   5 total cpu time :  3239.6 secs   av.it.:  14.8
      thresh= 2.407E-05 alpha_mix =  0.700 |ddv_scf|^2 =  1.627E-10

     Pert. #  1: Fermi energy shift (Ry) =     3.8050E-23    -2.2959E-41
     Pert. #  2: Fermi energy shift (Ry) =    -2.3806E-23     3.4438E-41

      iter #   6 total cpu time :  3478.6 secs   av.it.:  16.2
      thresh= 1.275E-06 alpha_mix =  0.700 |ddv_scf|^2 =  5.550E-13

     Pert. #  1: Fermi energy shift (Ry) =    -1.4889E-23     5.7397E-42
     Pert. #  2: Fermi energy shift (Ry) =     2.6172E-24     0.0000E+00

      iter #   7 total cpu time :  3728.0 secs   av.it.:  16.4
      thresh= 7.450E-08 alpha_mix =  0.700 |ddv_scf|^2 =  7.904E-14

     Pert. #  1: Fermi energy shift (Ry) =     1.3235E-23    -2.8699E-42
     Pert. #  2: Fermi energy shift (Ry) =     2.9093E-23     1.6143E-42

      iter #   8 total cpu time :  3967.5 secs   av.it.:  16.1
      thresh= 2.811E-08 alpha_mix =  0.700 |ddv_scf|^2 =  7.882E-16

     End of self-consistent calculation

     Convergence has been achieved 


     Representation #   4 mode #   6

     Self-consistent Calculation

     Pert. #  1: Fermi energy shift (Ry) =     5.2940E-23     0.0000E+00

      iter #   1 total cpu time :  4027.4 secs   av.it.:   4.8
      thresh= 1.000E-02 alpha_mix =  0.700 |ddv_scf|^2 =  3.060E-08

     Pert. #  1: Fermi energy shift (Ry) =     2.3823E-22     0.0000E+00

      iter #   2 total cpu time :  4145.7 secs   av.it.:  15.5
      thresh= 1.749E-05 alpha_mix =  0.700 |ddv_scf|^2 =  7.687E-09

     Pert. #  1: Fermi energy shift (Ry) =     0.0000E+00     0.0000E+00

      iter #   3 total cpu time :  4262.7 secs   av.it.:  15.8
      thresh= 8.768E-06 alpha_mix =  0.700 |ddv_scf|^2 =  1.299E-08

     Pert. #  1: Fermi energy shift (Ry) =    -7.9409E-23     0.0000E+00

      iter #   4 total cpu time :  4366.8 secs   av.it.:  13.5
      thresh= 1.140E-05 alpha_mix =  0.700 |ddv_scf|^2 =  1.686E-09

     Pert. #  1: Fermi energy shift (Ry) =     7.9409E-23     0.0000E+00

      iter #   5 total cpu time :  4475.5 secs   av.it.:  14.1
      thresh= 4.106E-06 alpha_mix =  0.700 |ddv_scf|^2 =  7.989E-12

     Pert. #  1: Fermi energy shift (Ry) =    -7.9409E-23     0.0000E+00

      iter #   6 total cpu time :  4582.0 secs   av.it.:  14.0
      thresh= 2.827E-07 alpha_mix =  0.700 |ddv_scf|^2 =  7.354E-15

     End of self-consistent calculation

     Convergence has been achieved 


     Representation #   5 mode #   7

     Self-consistent Calculation

     Pert. #  1: Fermi energy shift (Ry) =     8.2718E-25     9.4040E-38

      iter #   1 total cpu time :  4638.2 secs   av.it.:   4.1
      thresh= 1.000E-02 alpha_mix =  0.700 |ddv_scf|^2 =  4.260E-09

     Pert. #  1: Fermi energy shift (Ry) =     0.0000E+00    -1.8367E-40

      iter #   2 total cpu time :  4756.6 secs   av.it.:  14.8
      thresh= 6.527E-06 alpha_mix =  0.700 |ddv_scf|^2 =  1.047E-10

     Pert. #  1: Fermi energy shift (Ry) =     0.0000E+00     4.5918E-41

      iter #   3 total cpu time :  4876.6 secs   av.it.:  14.9
      thresh= 1.023E-06 alpha_mix =  0.700 |ddv_scf|^2 =  1.505E-12

     Pert. #  1: Fermi energy shift (Ry) =     0.0000E+00    -2.8699E-42

      iter #   4 total cpu time :  4988.3 secs   av.it.:  13.9
      thresh= 1.227E-07 alpha_mix =  0.700 |ddv_scf|^2 =  6.014E-15

     End of self-consistent calculation

     Convergence has been achieved 


     Representation #   6 modes #   8   9

     Self-consistent Calculation

     Pert. #  1: Fermi energy shift (Ry) =    -1.3235E-23    -4.7020E-37
     Pert. #  2: Fermi energy shift (Ry) =    -2.2777E-23     2.8212E-37

      iter #   1 total cpu time :  5096.7 secs   av.it.:   4.4
      thresh= 1.000E-02 alpha_mix =  0.700 |ddv_scf|^2 =  1.054E-09

     Pert. #  1: Fermi energy shift (Ry) =    -4.9631E-24    -4.5918E-41
     Pert. #  2: Fermi energy shift (Ry) =    -1.2212E-23     2.8699E-41

      iter #   2 total cpu time :  5352.6 secs   av.it.:  17.0
      thresh= 3.247E-06 alpha_mix =  0.700 |ddv_scf|^2 =  3.560E-11

     Pert. #  1: Fermi energy shift (Ry) =     9.9262E-24     0.0000E+00
     Pert. #  2: Fermi energy shift (Ry) =     1.4271E-23     1.8941E-40

      iter #   3 total cpu time :  5617.8 secs   av.it.:  17.9
      thresh= 5.967E-07 alpha_mix =  0.700 |ddv_scf|^2 =  3.531E-10

     Pert. #  1: Fermi energy shift (Ry) =     4.9631E-24     9.1835E-41
     Pert. #  2: Fermi energy shift (Ry) =     9.0572E-25    -8.0356E-41

      iter #   4 total cpu time :  5851.4 secs   av.it.:  15.7
      thresh= 1.879E-06 alpha_mix =  0.700 |ddv_scf|^2 =  2.456E-10

     Pert. #  1: Fermi energy shift (Ry) =    -6.6174E-24     0.0000E+00
     Pert. #  2: Fermi energy shift (Ry) =     9.5125E-25    -1.1479E-41

      iter #   5 total cpu time :  6079.4 secs   av.it.:  15.2
      thresh= 1.567E-06 alpha_mix =  0.700 |ddv_scf|^2 =  2.352E-13

     Pert. #  1: Fermi energy shift (Ry) =     1.9852E-23     2.2959E-41
     Pert. #  2: Fermi energy shift (Ry) =    -1.2291E-23     1.2914E-41

      iter #   6 total cpu time :  6314.9 secs   av.it.:  16.1
      thresh= 4.850E-08 alpha_mix =  0.700 |ddv_scf|^2 =  1.679E-13

     Pert. #  1: Fermi energy shift (Ry) =     6.6174E-24     1.1479E-41
     Pert. #  2: Fermi energy shift (Ry) =     1.4181E-23    -2.8699E-42

      iter #   7 total cpu time :  6551.4 secs   av.it.:  15.9
      thresh= 4.098E-08 alpha_mix =  0.700 |ddv_scf|^2 =  7.800E-16

     End of self-consistent calculation

     Convergence has been achieved 


     Representation #   7 modes #  10  11

     Self-consistent Calculation

     Pert. #  1: Fermi energy shift (Ry) =     0.0000E+00    -7.5232E-37
     Pert. #  2: Fermi energy shift (Ry) =     1.4967E-22     2.0689E-36

      iter #   1 total cpu time :  6689.9 secs   av.it.:   7.7
      thresh= 1.000E-02 alpha_mix =  0.700 |ddv_scf|^2 =  2.140E-07

     Pert. #  1: Fermi energy shift (Ry) =    -6.6174E-24     2.2041E-39
     Pert. #  2: Fermi energy shift (Ry) =     3.3220E-23    -7.3468E-40

      iter #   2 total cpu time :  6949.9 secs   av.it.:  17.7
      thresh= 4.626E-05 alpha_mix =  0.700 |ddv_scf|^2 =  1.449E-06

     Pert. #  1: Fermi energy shift (Ry) =     0.0000E+00     0.0000E+00
     Pert. #  2: Fermi energy shift (Ry) =    -5.2959E-23     1.4694E-39

      iter #   3 total cpu time :  7187.9 secs   av.it.:  16.1
      thresh= 1.204E-04 alpha_mix =  0.700 |ddv_scf|^2 =  2.115E-06

     Pert. #  1: Fermi energy shift (Ry) =    -2.6470E-23    -2.2041E-39
     Pert. #  2: Fermi energy shift (Ry) =     5.8641E-23     7.3468E-40

      iter #   4 total cpu time :  7419.2 secs   av.it.:  15.3
      thresh= 1.454E-04 alpha_mix =  0.700 |ddv_scf|^2 =  4.575E-08

     Pert. #  1: Fermi energy shift (Ry) =     2.6470E-23     0.0000E+00
     Pert. #  2: Fermi energy shift (Ry) =    -5.0055E-23     4.5918E-41

      iter #   5 total cpu time :  7642.0 secs   av.it.:  15.0
      thresh= 2.139E-05 alpha_mix =  0.700 |ddv_scf|^2 =  4.741E-09

     Pert. #  1: Fermi energy shift (Ry) =     5.2940E-23     0.0000E+00
     Pert. #  2: Fermi energy shift (Ry) =     1.4402E-24    -1.1479E-40

      iter #   6 total cpu time :  7867.6 secs   av.it.:  14.8
      thresh= 6.886E-06 alpha_mix =  0.700 |ddv_scf|^2 =  1.520E-11

     Pert. #  1: Fermi energy shift (Ry) =     2.6470E-23     0.0000E+00
     Pert. #  2: Fermi energy shift (Ry) =     1.3367E-22    -1.4349E-42

      iter #   7 total cpu time :  8096.7 secs   av.it.:  15.3
      thresh= 3.899E-07 alpha_mix =  0.700 |ddv_scf|^2 =  1.060E-14

     Pert. #  1: Fermi energy shift (Ry) =     2.6470E-23    -2.1524E-42
     Pert. #  2: Fermi energy shift (Ry) =     5.4259E-23     7.1746E-43

      iter #   8 total cpu time :  8343.3 secs   av.it.:  16.5
      thresh= 1.029E-08 alpha_mix =  0.700 |ddv_scf|^2 =  3.452E-16

     End of self-consistent calculation

     Convergence has been achieved 


     Representation #   8 mode #  12

     Self-consistent Calculation

     Pert. #  1: Fermi energy shift (Ry) =    -2.1176E-22    -5.2662E-36

      iter #   1 total cpu time :  8420.8 secs   av.it.:   8.3
      thresh= 1.000E-02 alpha_mix =  0.700 |ddv_scf|^2 =  2.493E-06

     Pert. #  1: Fermi energy shift (Ry) =    -4.7646E-22     1.1755E-38

      iter #   2 total cpu time :  8535.4 secs   av.it.:  15.4
      thresh= 1.579E-04 alpha_mix =  0.700 |ddv_scf|^2 =  7.153E-07

     Pert. #  1: Fermi energy shift (Ry) =     0.0000E+00     1.4694E-39

      iter #   3 total cpu time :  8651.3 secs   av.it.:  15.5
      thresh= 8.458E-05 alpha_mix =  0.700 |ddv_scf|^2 =  1.227E-07

     Pert. #  1: Fermi energy shift (Ry) =    -1.1581E-23     1.4694E-39

      iter #   4 total cpu time :  8761.9 secs   av.it.:  14.5
      thresh= 3.502E-05 alpha_mix =  0.700 |ddv_scf|^2 =  2.307E-07

     Pert. #  1: Fermi energy shift (Ry) =     0.0000E+00    -1.4694E-39

      iter #   5 total cpu time :  8864.6 secs   av.it.:  13.0
      thresh= 4.803E-05 alpha_mix =  0.700 |ddv_scf|^2 =  6.482E-10

     Pert. #  1: Fermi energy shift (Ry) =     3.3087E-24     6.4285E-40

      iter #   6 total cpu time :  8975.7 secs   av.it.:  14.6
      thresh= 2.546E-06 alpha_mix =  0.700 |ddv_scf|^2 =  2.233E-12

     Pert. #  1: Fermi energy shift (Ry) =     2.9779E-23     2.0089E-41

      iter #   7 total cpu time :  9091.4 secs   av.it.:  14.8
      thresh= 1.494E-07 alpha_mix =  0.700 |ddv_scf|^2 =  3.144E-13

     Pert. #  1: Fermi energy shift (Ry) =     2.9779E-23    -2.0089E-41

      iter #   8 total cpu time :  9201.7 secs   av.it.:  14.4
      thresh= 5.607E-08 alpha_mix =  0.700 |ddv_scf|^2 =  3.084E-15

     End of self-consistent calculation

     Convergence has been achieved 


     Representation #   9 mode #  13

     Self-consistent Calculation

     Pert. #  1: Fermi energy shift (Ry) =     0.0000E+00     0.0000E+00

      iter #   1 total cpu time :  9271.5 secs   av.it.:   7.4
      thresh= 1.000E-02 alpha_mix =  0.700 |ddv_scf|^2 =  8.546E-07

     Pert. #  1: Fermi energy shift (Ry) =     0.0000E+00     0.0000E+00

      iter #   2 total cpu time :  9391.7 secs   av.it.:  16.1
      thresh= 9.245E-05 alpha_mix =  0.700 |ddv_scf|^2 =  5.753E-06

     Pert. #  1: Fermi energy shift (Ry) =     1.5882E-22     0.0000E+00

      iter #   3 total cpu time :  9500.5 secs   av.it.:  14.4
      thresh= 2.398E-04 alpha_mix =  0.700 |ddv_scf|^2 =  8.481E-06

     Pert. #  1: Fermi energy shift (Ry) =    -3.1764E-22     0.0000E+00

      iter #   4 total cpu time :  9608.2 secs   av.it.:  13.8
      thresh= 2.912E-04 alpha_mix =  0.700 |ddv_scf|^2 =  1.824E-07

     Pert. #  1: Fermi energy shift (Ry) =     3.1764E-22     0.0000E+00

      iter #   5 total cpu time :  9710.3 secs   av.it.:  13.4
      thresh= 4.271E-05 alpha_mix =  0.700 |ddv_scf|^2 =  1.887E-08

     Pert. #  1: Fermi energy shift (Ry) =     3.1764E-22     0.0000E+00

      iter #   6 total cpu time :  9811.8 secs   av.it.:  13.1
      thresh= 1.374E-05 alpha_mix =  0.700 |ddv_scf|^2 =  5.991E-11

     Pert. #  1: Fermi energy shift (Ry) =     1.0588E-22     0.0000E+00

      iter #   7 total cpu time :  9916.9 secs   av.it.:  13.8
      thresh= 7.740E-07 alpha_mix =  0.700 |ddv_scf|^2 =  4.168E-14

     Pert. #  1: Fermi energy shift (Ry) =     3.1764E-22     0.0000E+00

      iter #   8 total cpu time : 10028.8 secs   av.it.:  15.0
      thresh= 2.041E-08 alpha_mix =  0.700 |ddv_scf|^2 =  1.692E-15

     End of self-consistent calculation

     Convergence has been achieved 


     Representation #  10 modes #  14  15

     Self-consistent Calculation

     Pert. #  1: Fermi energy shift (Ry) =     1.6544E-23     0.0000E+00
     Pert. #  2: Fermi energy shift (Ry) =     1.1065E-23    -1.8808E-37

      iter #   1 total cpu time : 10141.9 secs   av.it.:   5.1
      thresh= 1.000E-02 alpha_mix =  0.700 |ddv_scf|^2 =  1.022E-08

     Pert. #  1: Fermi energy shift (Ry) =     0.0000E+00     0.0000E+00
     Pert. #  2: Fermi energy shift (Ry) =    -1.2942E-23     0.0000E+00

      iter #   2 total cpu time : 10397.9 secs   av.it.:  17.1
      thresh= 1.011E-05 alpha_mix =  0.700 |ddv_scf|^2 =  2.726E-09

     Pert. #  1: Fermi energy shift (Ry) =     3.3087E-24     0.0000E+00
     Pert. #  2: Fermi energy shift (Ry) =     2.5720E-24    -2.0663E-40

      iter #   3 total cpu time : 10653.7 secs   av.it.:  17.2
      thresh= 5.221E-06 alpha_mix =  0.700 |ddv_scf|^2 =  1.538E-09

     Pert. #  1: Fermi energy shift (Ry) =    -1.3235E-23    -1.3775E-40
     Pert. #  2: Fermi energy shift (Ry) =     2.0420E-24     4.5918E-41

      iter #   4 total cpu time : 10888.0 secs   av.it.:  15.6
      thresh= 3.922E-06 alpha_mix =  0.700 |ddv_scf|^2 =  6.720E-10

     Pert. #  1: Fermi energy shift (Ry) =     0.0000E+00     0.0000E+00
     Pert. #  2: Fermi energy shift (Ry) =     1.6974E-24     0.0000E+00

      iter #   5 total cpu time : 11119.3 secs   av.it.:  15.2
      thresh= 2.592E-06 alpha_mix =  0.700 |ddv_scf|^2 =  7.253E-12

     Pert. #  1: Fermi energy shift (Ry) =     3.3087E-24    -2.8699E-42
     Pert. #  2: Fermi energy shift (Ry) =     1.7639E-24    -1.4349E-42

      iter #   6 total cpu time : 11354.1 secs   av.it.:  15.7
      thresh= 2.693E-07 alpha_mix =  0.700 |ddv_scf|^2 =  6.178E-15

     End of self-consistent calculation

     Convergence has been achieved 

     Number of q in the star =    1
     List of q in the star:
          1   0.000000000   0.000000000   0.000000000

     Diagonalizing the dynamical matrix

     q = (    0.000000000   0.000000000   0.000000000 ) 

 **************************************************************************
     freq (    1) =       0.140101 [THz] =       4.673268 [cm-1]
     freq (    2) =       0.140101 [THz] =       4.673268 [cm-1]
     freq (    3) =       0.151562 [THz] =       5.055561 [cm-1]
     freq (    4) =       2.536334 [THz] =      84.602999 [cm-1]
     freq (    5) =       2.538534 [THz] =      84.676391 [cm-1]
     freq (    6) =       2.538534 [THz] =      84.676393 [cm-1]
     freq (    7) =      17.058877 [THz] =     569.022892 [cm-1]
     freq (    8) =      17.065669 [THz] =     569.249439 [cm-1]
     freq (    9) =      17.065669 [THz] =     569.249453 [cm-1]
     freq (   10) =      21.997154 [THz] =     733.746061 [cm-1]
     freq (   11) =      22.047271 [THz] =     735.417791 [cm-1]
     freq (   12) =      22.047271 [THz] =     735.417801 [cm-1]
     freq (   13) =      27.230048 [THz] =     908.296649 [cm-1]
     freq (   14) =      27.284674 [THz] =     910.118760 [cm-1]
     freq (   15) =      27.284674 [THz] =     910.118771 [cm-1]
 **************************************************************************

     Gaussian Broadening:   0.005 Ry, ngauss=   0
     DOS =  4.219568 states/spin/Ry/Unit Cell at Ef= 11.357251 eV
     double delta at Ef =830.719271
     lambda(    1)=  0.0000   gamma=    0.00 GHz
     lambda(    2)=  0.0000   gamma=    0.00 GHz
     lambda(    3)=  0.0000   gamma=    0.00 GHz
     lambda(    4)=  0.0001   gamma=    0.00 GHz
     lambda(    5)=  0.0001   gamma=    0.00 GHz
     lambda(    6)=  0.0001   gamma=    0.00 GHz
     lambda(    7)=  0.0001   gamma=    0.15 GHz
     lambda(    8)=  0.0001   gamma=    0.15 GHz
     lambda(    9)=  0.0001   gamma=    0.15 GHz
     lambda(   10)=  0.0505   gamma=   98.54 GHz
     lambda(   11)=  0.0503   gamma=   98.53 GHz
     lambda(   12)=  0.0503   gamma=   98.53 GHz
     lambda(   13)=  0.0000   gamma=    0.02 GHz
     lambda(   14)=  0.0000   gamma=    0.02 GHz
     lambda(   15)=  0.0000   gamma=    0.02 GHz

     Gaussian Broadening:   0.010 Ry, ngauss=   0
     DOS =  4.820728 states/spin/Ry/Unit Cell at Ef= 11.343102 eV
     double delta at Ef =438.691932
     lambda(    1)=  0.0000   gamma=    0.00 GHz
     lambda(    2)=  0.0000   gamma=    0.00 GHz
     lambda(    3)=  0.0000   gamma=    0.00 GHz
     lambda(    4)=  0.0001   gamma=    0.00 GHz
     lambda(    5)=  0.0001   gamma=    0.00 GHz
     lambda(    6)=  0.0001   gamma=    0.00 GHz
     lambda(    7)=  0.0001   gamma=    0.15 GHz
     lambda(    8)=  0.0001   gamma=    0.15 GHz
     lambda(    9)=  0.0001   gamma=    0.15 GHz
     lambda(   10)=  0.0158   gamma=   35.18 GHz
     lambda(   11)=  0.0157   gamma=   35.17 GHz
     lambda(   12)=  0.0157   gamma=   35.17 GHz
     lambda(   13)=  0.0000   gamma=    0.02 GHz
     lambda(   14)=  0.0000   gamma=    0.02 GHz
     lambda(   15)=  0.0000   gamma=    0.02 GHz

     Gaussian Broadening:   0.015 Ry, ngauss=   0
     DOS =  5.665696 states/spin/Ry/Unit Cell at Ef= 11.344030 eV
     double delta at Ef =327.870782
     lambda(    1)=  0.0000   gamma=    0.00 GHz
     lambda(    2)=  0.0000   gamma=    0.00 GHz
     lambda(    3)=  0.0000   gamma=    0.00 GHz
     lambda(    4)=  0.0002   gamma=    0.01 GHz
     lambda(    5)=  0.0002   gamma=    0.01 GHz
     lambda(    6)=  0.0002   gamma=    0.01 GHz
     lambda(    7)=  0.0003   gamma=    0.49 GHz
     lambda(    8)=  0.0003   gamma=    0.49 GHz
     lambda(    9)=  0.0003   gamma=    0.49 GHz
     lambda(   10)=  0.0117   gamma=   30.63 GHz
     lambda(   11)=  0.0116   gamma=   30.63 GHz
     lambda(   12)=  0.0116   gamma=   30.63 GHz
     lambda(   13)=  0.0000   gamma=    0.09 GHz
     lambda(   14)=  0.0000   gamma=    0.09 GHz
     lambda(   15)=  0.0000   gamma=    0.09 GHz

     Gaussian Broadening:   0.020 Ry, ngauss=   0
     DOS =  5.846183 states/spin/Ry/Unit Cell at Ef= 11.349273 eV
     double delta at Ef =254.579688
     lambda(    1)=  0.0000   gamma=    0.00 GHz
     lambda(    2)=  0.0000   gamma=    0.00 GHz
     lambda(    3)=  0.0000   gamma=    0.00 GHz
     lambda(    4)=  0.0004   gamma=    0.01 GHz
     lambda(    5)=  0.0004   gamma=    0.01 GHz
     lambda(    6)=  0.0004   gamma=    0.01 GHz
     lambda(    7)=  0.0007   gamma=    1.21 GHz
     lambda(    8)=  0.0007   gamma=    1.21 GHz
     lambda(    9)=  0.0007   gamma=    1.21 GHz
     lambda(   10)=  0.0122   gamma=   32.83 GHz
     lambda(   11)=  0.0121   gamma=   32.83 GHz
     lambda(   12)=  0.0121   gamma=   32.83 GHz
     lambda(   13)=  0.0001   gamma=    0.38 GHz
     lambda(   14)=  0.0001   gamma=    0.38 GHz
     lambda(   15)=  0.0001   gamma=    0.38 GHz

     Gaussian Broadening:   0.025 Ry, ngauss=   0
     DOS =  5.784233 states/spin/Ry/Unit Cell at Ef= 11.353944 eV
     double delta at Ef =204.189586
     lambda(    1)=  0.0000   gamma=    0.00 GHz
     lambda(    2)=  0.0000   gamma=    0.00 GHz
     lambda(    3)=  0.0000   gamma=    0.00 GHz
     lambda(    4)=  0.0009   gamma=    0.03 GHz
     lambda(    5)=  0.0009   gamma=    0.03 GHz
     lambda(    6)=  0.0009   gamma=    0.03 GHz
     lambda(    7)=  0.0023   gamma=    3.73 GHz
     lambda(    8)=  0.0023   gamma=    3.74 GHz
     lambda(    9)=  0.0023   gamma=    3.74 GHz
     lambda(   10)=  0.0121   gamma=   32.39 GHz
     lambda(   11)=  0.0121   gamma=   32.39 GHz
     lambda(   12)=  0.0121   gamma=   32.39 GHz
     lambda(   13)=  0.0005   gamma=    2.06 GHz
     lambda(   14)=  0.0005   gamma=    2.05 GHz
     lambda(   15)=  0.0005   gamma=    2.05 GHz

     Gaussian Broadening:   0.030 Ry, ngauss=   0
     DOS =  5.528529 states/spin/Ry/Unit Cell at Ef= 11.357749 eV
     double delta at Ef =168.954232
     lambda(    1)=  0.0000   gamma=    0.00 GHz
     lambda(    2)=  0.0000   gamma=    0.00 GHz
     lambda(    3)=  0.0000   gamma=    0.00 GHz
     lambda(    4)=  0.0022   gamma=    0.07 GHz
     lambda(    5)=  0.0022   gamma=    0.07 GHz
     lambda(    6)=  0.0022   gamma=    0.07 GHz
     lambda(    7)=  0.0061   gamma=    9.39 GHz
     lambda(    8)=  0.0061   gamma=    9.41 GHz
     lambda(    9)=  0.0061   gamma=    9.41 GHz
     lambda(   10)=  0.0120   gamma=   30.71 GHz
     lambda(   11)=  0.0120   gamma=   30.71 GHz
     lambda(   12)=  0.0120   gamma=   30.71 GHz
     lambda(   13)=  0.0015   gamma=    5.92 GHz
     lambda(   14)=  0.0015   gamma=    5.90 GHz
     lambda(   15)=  0.0015   gamma=    5.90 GHz

     Gaussian Broadening:   0.035 Ry, ngauss=   0
     DOS =  5.183905 states/spin/Ry/Unit Cell at Ef= 11.361575 eV
     double delta at Ef =144.021492
     lambda(    1)=  0.0000   gamma=    0.00 GHz
     lambda(    2)=  0.0000   gamma=    0.00 GHz
     lambda(    3)=  0.0000   gamma=    0.00 GHz
     lambda(    4)=  0.0047   gamma=    0.15 GHz
     lambda(    5)=  0.0046   gamma=    0.15 GHz
     lambda(    6)=  0.0046   gamma=    0.15 GHz
     lambda(    7)=  0.0121   gamma=   17.49 GHz
     lambda(    8)=  0.0122   gamma=   17.53 GHz
     lambda(    9)=  0.0122   gamma=   17.53 GHz
     lambda(   10)=  0.0124   gamma=   29.63 GHz
     lambda(   11)=  0.0123   gamma=   29.63 GHz
     lambda(   12)=  0.0123   gamma=   29.63 GHz
     lambda(   13)=  0.0030   gamma=   11.18 GHz
     lambda(   14)=  0.0030   gamma=   11.14 GHz
     lambda(   15)=  0.0030   gamma=   11.14 GHz

     Gaussian Broadening:   0.040 Ry, ngauss=   0
     DOS =  4.842655 states/spin/Ry/Unit Cell at Ef= 11.367156 eV
     double delta at Ef =126.480845
     lambda(    1)=  0.0000   gamma=    0.01 GHz
     lambda(    2)=  0.0000   gamma=    0.01 GHz
     lambda(    3)=  0.0000   gamma=    0.01 GHz
     lambda(    4)=  0.0089   gamma=    0.26 GHz
     lambda(    5)=  0.0088   gamma=    0.26 GHz
     lambda(    6)=  0.0088   gamma=    0.26 GHz
     lambda(    7)=  0.0204   gamma=   27.41 GHz
     lambda(    8)=  0.0204   gamma=   27.48 GHz
     lambda(    9)=  0.0204   gamma=   27.48 GHz
     lambda(   10)=  0.0135   gamma=   30.26 GHz
     lambda(   11)=  0.0135   gamma=   30.25 GHz
     lambda(   12)=  0.0135   gamma=   30.25 GHz
     lambda(   13)=  0.0049   gamma=   16.87 GHz
     lambda(   14)=  0.0049   gamma=   16.81 GHz
     lambda(   15)=  0.0049   gamma=   16.81 GHz

     Gaussian Broadening:   0.045 Ry, ngauss=   0
     DOS =  4.550600 states/spin/Ry/Unit Cell at Ef= 11.376058 eV
     double delta at Ef =114.495565
     lambda(    1)=  0.0000   gamma=    0.01 GHz
     lambda(    2)=  0.0000   gamma=    0.01 GHz
     lambda(    3)=  0.0000   gamma=    0.01 GHz
     lambda(    4)=  0.0155   gamma=    0.43 GHz
     lambda(    5)=  0.0154   gamma=    0.43 GHz
     lambda(    6)=  0.0154   gamma=    0.43 GHz
     lambda(    7)=  0.0310   gamma=   39.23 GHz
     lambda(    8)=  0.0311   gamma=   39.32 GHz
     lambda(    9)=  0.0311   gamma=   39.32 GHz
     lambda(   10)=  0.0158   gamma=   33.27 GHz
     lambda(   11)=  0.0158   gamma=   33.27 GHz
     lambda(   12)=  0.0158   gamma=   33.27 GHz
     lambda(   13)=  0.0070   gamma=   22.49 GHz
     lambda(   14)=  0.0069   gamma=   22.40 GHz
     lambda(   15)=  0.0069   gamma=   22.40 GHz

     Gaussian Broadening:   0.050 Ry, ngauss=   0
     DOS =  4.331154 states/spin/Ry/Unit Cell at Ef= 11.388608 eV
     double delta at Ef =106.790430
     lambda(    1)=  0.0000   gamma=    0.02 GHz
     lambda(    2)=  0.0000   gamma=    0.02 GHz
     lambda(    3)=  0.0000   gamma=    0.02 GHz
     lambda(    4)=  0.0249   gamma=    0.66 GHz
     lambda(    5)=  0.0247   gamma=    0.66 GHz
     lambda(    6)=  0.0247   gamma=    0.66 GHz
     lambda(    7)=  0.0440   gamma=   52.94 GHz
     lambda(    8)=  0.0440   gamma=   53.05 GHz
     lambda(    9)=  0.0440   gamma=   53.05 GHz
     lambda(   10)=  0.0195   gamma=   39.00 GHz
     lambda(   11)=  0.0194   gamma=   39.00 GHz
     lambda(   12)=  0.0194   gamma=   39.00 GHz
     lambda(   13)=  0.0091   gamma=   27.77 GHz
     lambda(   14)=  0.0090   gamma=   27.66 GHz
     lambda(   15)=  0.0090   gamma=   27.66 GHz

     Calculation of q =    0.0000000   0.0000000   0.2500000

     G-vector sticks info
     --------------------
     sticks:   dense  smooth     PW     G-vecs:    dense   smooth      PW
     Sum        2933    1465    437               119177    42115    6859

     Using Slab Decomposition


     Title: 
     BaAuH3 phonon + electron-phonon 4x4x4 q (RTSC A10 - SrAuH3 A-site Ba-varian


     bravais-lattice index     =            0
     lattice parameter (alat)  =       7.5797  a.u.
     unit-cell volume          =     435.4739 (a.u.)^3
     number of atoms/cell      =            5
     number of atomic types    =            3
     number of electrons       =        24.00
     number of Kohn-Sham states=           16
     kinetic-energy cutoff     =      80.0000  Ry
     charge density cutoff     =     640.0000  Ry
     Exchange-correlation= PBE
                           (   1   4   3   4   0   0   0)

     celldm(1)=   7.579729  celldm(2)=   0.000000  celldm(3)=   0.000000
     celldm(4)=   0.000000  celldm(5)=   0.000000  celldm(6)=   0.000000

     crystal axes: (cart. coord. in units of alat)
               a(1) = (   1.000000   0.000000  -0.000000 )  
               a(2) = (   0.000000   1.000002  -0.000000 )  
               a(3) = (  -0.000000  -0.000000   1.000000 )  

     reciprocal axes: (cart. coord. in units 2 pi/alat)
               b(1) = (  1.000000 -0.000000  0.000000 )  
               b(2) = ( -0.000000  0.999998  0.000000 )  
               b(3) = (  0.000000  0.000000  1.000000 )  


     PseudoPot. # 1 for Ba read from file:
     ./pseudo/Ba.pbe-spn-rrkjus_psl.1.0.0.UPF
     MD5 check sum: 9f28e7b3efa99dece8b35669272401d8
     Pseudo is Ultrasoft + core correction, Zval = 10.0
     Generated using &quot;atomic&quot; code by A. Dal Corso  v.6.2.2
     Using radial grid of 1251 points,  7 beta functions with: 
                l(1) =   0
                l(2) =   0
                l(3) =   0
                l(4) =   1
                l(5) =   1
                l(6) =   2
                l(7) =   2
     Q(r) pseudized with 0 coefficients 


     PseudoPot. # 2 for Au read from file:
     ./pseudo/Au.pbe-n-rrkjus_psl.1.0.0.UPF
     MD5 check sum: d7e77ba19504afed2c9b41c931dde4f0
     Pseudo is Ultrasoft + core correction, Zval = 11.0
     Generated using &quot;atomic&quot; code by A. Dal Corso  v.6.3
     Using radial grid of 1279 points,  6 beta functions with: 
                l(1) =   0
                l(2) =   0
                l(3) =   1
                l(4) =   1
                l(5) =   2
                l(6) =   2
     Q(r) pseudized with 0 coefficients 


     PseudoPot. # 3 for H  read from file:
     ./pseudo/H.pbe-rrkjus_psl.1.0.0.UPF
     MD5 check sum: 3f4114867bd07edc7f1424d066fc1888
     Pseudo is Ultrasoft, Zval =  1.0
     Generated using &quot;atomic&quot; code by A. Dal Corso  v.6.3MaX
     Using radial grid of  929 points,  2 beta functions with: 
                l(1) =   0
                l(2) =   0
     Q(r) pseudized with 0 coefficients 


     atomic species   valence    mass     pseudopotential
     Ba               10.00   137.32700     Ba( 1.00)
     Au               11.00   196.96700     Au( 1.00)
     H                 1.00     1.00800     H ( 1.00)

     16 Sym. Ops., with inversion, found



   Cartesian axes

     site n.     atom                  positions (alat units)
         1        Ba     tau(   1) = (   0.5000043   0.5000046   0.4999996  )
         2        Au     tau(   2) = (  -0.0000010  -0.0000008   0.0000001  )
         3        H      tau(   3) = (   0.4999989  -0.0000008   0.0000001  )
         4        H      tau(   4) = (  -0.0000010   0.5000004   0.0000001  )
         5        H      tau(   5) = (  -0.0000011  -0.0000008   0.5000001  )

     number of k points=  2592  Methfessel-Paxton smearing, width (Ry)=  0.0200

     Number of k-points >= 100: set verbosity='high' to print them.

     Dense  grid:   119177 G-vectors     FFT dimensions: (  64,  64,  64)

     Smooth grid:    42115 G-vectors     FFT dimensions: (  45,  45,  45)

     Estimated max dynamical RAM per process >     151.50 MB

     Estimated total dynamical RAM >     606.02 MB

     The potential is recalculated from file :
     ./out/_ph0/baauh3.q_2/baauh3.save/charge-density

     Starting wfcs are   17 atomic wfcs

     Band Structure Calculation
     Davidson diagonalization with overlap

     ethr =  4.17E-11,  avg # of iterations = 26.3

     total cpu time spent up to now is     1047.6 secs

     End of band structure calculation

     Number of k-points >= 100: set verbosity='high' to print the bands.

     the Fermi energy is    11.3493 ev

     Writing config to output data dir ./out/_ph0/baauh3.q_2/baauh3.save/ :
     XML data file

     BaAuH3 phonon + electron-phonon 4x4x4 q (RTSC A10 - SrAuH3 A-site Ba-varian

     bravais-lattice index     =            0
     lattice parameter (alat)  =       7.5797  a.u.
     unit-cell volume          =     435.4739 (a.u.)^3
     number of atoms/cell      =            5
     number of atomic types    =            3
     kinetic-energy cut-off    =      80.0000  Ry
     charge density cut-off    =     640.0000  Ry
     convergence threshold     =      1.0E-14
     beta                      =       0.7000
     number of iterations used =            4
     Exchange-correlation= PBE
                           (   1   4   3   4   0   0   0)


     celldm(1)=    7.57973  celldm(2)=    0.00000  celldm(3)=    0.00000
     celldm(4)=    0.00000  celldm(5)=    0.00000  celldm(6)=    0.00000

     crystal axes: (cart. coord. in units of alat)
               a(1) = (  1.0000  0.0000 -0.0000 )  
               a(2) = (  0.0000  1.0000 -0.0000 )  
               a(3) = ( -0.0000 -0.0000  1.0000 )  

     reciprocal axes: (cart. coord. in units 2 pi/alat)
               b(1) = (  1.0000 -0.0000  0.0000 )  
               b(2) = ( -0.0000  1.0000  0.0000 )  
               b(3) = (  0.0000  0.0000  1.0000 )  


     Atoms inside the unit cell: 

     Cartesian axes

     site n.  atom      mass           positions (alat units)
        1  Ba    137.3270   tau(    1) = (    0.50000    0.50000    0.50000  )
        2  Au    196.9670   tau(    2) = (   -0.00000   -0.00000    0.00000  )
        3  H       1.0080   tau(    3) = (    0.50000   -0.00000    0.00000  )
        4  H       1.0080   tau(    4) = (   -0.00000    0.50000    0.00000  )
        5  H       1.0080   tau(    5) = (   -0.00000   -0.00000    0.50000  )

     Computing dynamical matrix for 
                    q = (   0.0000000   0.0000000   0.2500000 )

      4 Sym.Ops. (no q -> -q+G )


     G cutoff =  931.3815  ( 119177 G-vectors)     FFT grid: ( 64, 64, 64)
     G cutoff =  465.6908  (  42115 G-vectors)  smooth grid: ( 45, 45, 45)

     number of k points=  2592  Methfessel-Paxton smearing, width (Ry)=  0.0200

     PseudoPot. # 1 for Ba read from file:
     ./pseudo/Ba.pbe-spn-rrkjus_psl.1.0.0.UPF
     MD5 check sum: 9f28e7b3efa99dece8b35669272401d8
     Pseudo is Ultrasoft + core correction, Zval = 10.0
     Generated using &quot;atomic&quot; code by A. Dal Corso  v.6.2.2
     Using radial grid of 1251 points,  7 beta functions with: 
                l(1) =   0
                l(2) =   0
                l(3) =   0
                l(4) =   1
                l(5) =   1
                l(6) =   2
                l(7) =   2
     Q(r) pseudized with 0 coefficients 


     PseudoPot. # 2 for Au read from file:
     ./pseudo/Au.pbe-n-rrkjus_psl.1.0.0.UPF
     MD5 check sum: d7e77ba19504afed2c9b41c931dde4f0
     Pseudo is Ultrasoft + core correction, Zval = 11.0
     Generated using &quot;atomic&quot; code by A. Dal Corso  v.6.3
     Using radial grid of 1279 points,  6 beta functions with: 
                l(1) =   0
                l(2) =   0
                l(3) =   1
                l(4) =   1
                l(5) =   2
                l(6) =   2
     Q(r) pseudized with 0 coefficients 


     PseudoPot. # 3 for H  read from file:
     ./pseudo/H.pbe-rrkjus_psl.1.0.0.UPF
     MD5 check sum: 3f4114867bd07edc7f1424d066fc1888
     Pseudo is Ultrasoft, Zval =  1.0
     Generated using &quot;atomic&quot; code by A. Dal Corso  v.6.3MaX
     Using radial grid of  929 points,  2 beta functions with: 
                l(1) =   0
                l(2) =   0
     Q(r) pseudized with 0 coefficients 



     Atomic displacements:
     There are   15 irreducible representations

     Representation     1      1 modes -  To be done

     Representation     2      1 modes -  To be done

     Representation     3      1 modes -  To be done

     Representation     4      1 modes -  To be done

     Representation     5      1 modes -  To be done

     Representation     6      1 modes -  To be done

     Representation     7      1 modes -  To be done

     Representation     8      1 modes -  To be done

     Representation     9      1 modes -  To be done

     Representation    10      1 modes -  To be done

     Representation    11      1 modes -  To be done

     Representation    12      1 modes -  To be done

     Representation    13      1 modes -  To be done

     Representation    14      1 modes -  To be done

     Representation    15      1 modes -  To be done


     Message from routine init_vloc:
     Interpolation table for Vloc re-allocated

     Alpha used in Ewald sum =   2.8000
     PHONON       :      6h39m CPU      3h29m WALL



     Representation #   1 mode #   1

     Self-consistent Calculation

      iter #   1 total cpu time : 12734.9 secs   av.it.:   4.4
      thresh= 1.000E-02 alpha_mix =  0.700 |ddv_scf|^2 =  1.433E-08

      iter #   2 total cpu time : 13111.4 secs   av.it.:  16.0
      thresh= 1.197E-05 alpha_mix =  0.700 |ddv_scf|^2 =  2.083E-09

      iter #   3 total cpu time : 13500.4 secs   av.it.:  16.7
      thresh= 4.564E-06 alpha_mix =  0.700 |ddv_scf|^2 =  6.692E-09

      iter #   4 total cpu time : 13844.0 secs   av.it.:  14.3
      thresh= 8.180E-06 alpha_mix =  0.700 |ddv_scf|^2 =  3.649E-09

      iter #   5 total cpu time : 14187.5 secs   av.it.:  14.3
      thresh= 6.040E-06 alpha_mix =  0.700 |ddv_scf|^2 =  6.952E-13

      iter #   6 total cpu time : 14575.2 secs   av.it.:  16.5
      thresh= 8.338E-08 alpha_mix =  0.700 |ddv_scf|^2 =  1.120E-12

      iter #   7 total cpu time : 14919.1 secs   av.it.:  14.4
      thresh= 1.058E-07 alpha_mix =  0.700 |ddv_scf|^2 =  2.271E-15

     End of self-consistent calculation

     Convergence has been achieved 


     Representation #   2 mode #   2

     Self-consistent Calculation

      iter #   1 total cpu time : 15198.7 secs   av.it.:   9.5
      thresh= 1.000E-02 alpha_mix =  0.700 |ddv_scf|^2 =  1.529E-03

      iter #   2 total cpu time : 15582.7 secs   av.it.:  15.0
      thresh= 3.911E-03 alpha_mix =  0.700 |ddv_scf|^2 =  1.502E-01

      iter #   3 total cpu time : 15931.6 secs   av.it.:  13.3
      thresh= 1.000E-02 alpha_mix =  0.700 |ddv_scf|^2 =  3.974E-06

      iter #   4 total cpu time : 16311.1 secs   av.it.:  16.0
      thresh= 1.994E-04 alpha_mix =  0.700 |ddv_scf|^2 =  1.491E-06

      iter #   5 total cpu time : 16689.1 secs   av.it.:  15.9
      thresh= 1.221E-04 alpha_mix =  0.700 |ddv_scf|^2 =  9.144E-06

      iter #   6 total cpu time : 17024.1 secs   av.it.:  13.8
      thresh= 3.024E-04 alpha_mix =  0.700 |ddv_scf|^2 =  1.618E-07

      iter #   7 total cpu time : 17369.3 secs   av.it.:  14.2
      thresh= 4.023E-05 alpha_mix =  0.700 |ddv_scf|^2 =  1.318E-08

      iter #   8 total cpu time : 17715.8 secs   av.it.:  14.3
      thresh= 1.148E-05 alpha_mix =  0.700 |ddv_scf|^2 =  4.466E-10

      iter #   9 total cpu time : 18049.1 secs   av.it.:  14.0
      thresh= 2.113E-06 alpha_mix =  0.700 |ddv_scf|^2 =  8.571E-11

      iter #  10 total cpu time : 18396.8 secs   av.it.:  14.3
      thresh= 9.258E-07 alpha_mix =  0.700 |ddv_scf|^2 =  8.588E-13

      iter #  11 total cpu time : 18746.7 secs   av.it.:  14.6
      thresh= 9.267E-08 alpha_mix =  0.700 |ddv_scf|^2 =  2.608E-13

      iter #  12 total cpu time : 19106.6 secs   av.it.:  14.8
      thresh= 5.107E-08 alpha_mix =  0.700 |ddv_scf|^2 =  5.613E-13

      iter #  13 total cpu time : 19443.6 secs   av.it.:  13.4
      thresh= 7.492E-08 alpha_mix =  0.700 |ddv_scf|^2 =  7.396E-15

     End of self-consistent calculation

     Convergence has been achieved 


     Representation #   3 mode #   3

     Self-consistent Calculation

      iter #   1 total cpu time : 19612.7 secs   av.it.:   4.4
      thresh= 1.000E-02 alpha_mix =  0.700 |ddv_scf|^2 =  1.433E-08

      iter #   2 total cpu time : 19995.8 secs   av.it.:  16.0
      thresh= 1.197E-05 alpha_mix =  0.700 |ddv_scf|^2 =  2.085E-09

      iter #   3 total cpu time : 20382.7 secs   av.it.:  16.6
      thresh= 4.566E-06 alpha_mix =  0.700 |ddv_scf|^2 =  6.728E-09

      iter #   4 total cpu time : 20724.6 secs   av.it.:  14.3
      thresh= 8.202E-06 alpha_mix =  0.700 |ddv_scf|^2 =  3.638E-09

      iter #   5 total cpu time : 21063.7 secs   av.it.:  14.2
      thresh= 6.031E-06 alpha_mix =  0.700 |ddv_scf|^2 =  6.956E-13

      iter #   6 total cpu time : 21449.4 secs   av.it.:  16.5
      thresh= 8.340E-08 alpha_mix =  0.700 |ddv_scf|^2 =  1.120E-12

      iter #   7 total cpu time : 21786.5 secs   av.it.:  14.4
      thresh= 1.058E-07 alpha_mix =  0.700 |ddv_scf|^2 =  2.270E-15

     End of self-consistent calculation

     Convergence has been achieved 


     Representation #   4 mode #   4

     Self-consistent Calculation

      iter #   1 total cpu time : 21985.8 secs   av.it.:   5.3
      thresh= 1.000E-02 alpha_mix =  0.700 |ddv_scf|^2 =  1.651E-05

      iter #   2 total cpu time : 22372.8 secs   av.it.:  14.7
      thresh= 4.063E-04 alpha_mix =  0.700 |ddv_scf|^2 =  1.643E-03

      iter #   3 total cpu time : 22674.0 secs   av.it.:  10.7
      thresh= 4.054E-03 alpha_mix =  0.700 |ddv_scf|^2 =  4.022E-08

      iter #   4 total cpu time : 23079.5 secs   av.it.:  16.8
      thresh= 2.006E-05 alpha_mix =  0.700 |ddv_scf|^2 =  1.881E-07

      iter #   5 total cpu time : 23450.7 secs   av.it.:  15.2
      thresh= 4.337E-05 alpha_mix =  0.700 |ddv_scf|^2 =  1.571E-07

      iter #   6 total cpu time : 23786.2 secs   av.it.:  13.9
      thresh= 3.964E-05 alpha_mix =  0.700 |ddv_scf|^2 =  1.016E-08

      iter #   7 total cpu time : 24130.9 secs   av.it.:  14.0
      thresh= 1.008E-05 alpha_mix =  0.700 |ddv_scf|^2 =  2.546E-11

      iter #   8 total cpu time : 24504.8 secs   av.it.:  15.7
      thresh= 5.046E-07 alpha_mix =  0.700 |ddv_scf|^2 =  7.859E-12

      iter #   9 total cpu time : 24855.7 secs   av.it.:  14.2
      thresh= 2.803E-07 alpha_mix =  0.700 |ddv_scf|^2 =  1.903E-13

      iter #  10 total cpu time : 25234.6 secs   av.it.:  15.4
      thresh= 4.362E-08 alpha_mix =  0.700 |ddv_scf|^2 =  3.635E-13

      iter #  11 total cpu time : 25586.0 secs   av.it.:  14.1
      thresh= 6.029E-08 alpha_mix =  0.700 |ddv_scf|^2 =  2.331E-13

      iter #  12 total cpu time : 25936.0 secs   av.it.:  14.4
      thresh= 4.828E-08 alpha_mix =  0.700 |ddv_scf|^2 =  5.054E-15

     End of self-consistent calculation

     Convergence has been achieved 


     Representation #   5 mode #   5

     Self-consistent Calculation

      iter #   1 total cpu time : 26131.0 secs   av.it.:   5.1
      thresh= 1.000E-02 alpha_mix =  0.700 |ddv_scf|^2 =  1.745E-05

      iter #   2 total cpu time : 26521.0 secs   av.it.:  14.9
      thresh= 4.178E-04 alpha_mix =  0.700 |ddv_scf|^2 =  1.670E-03

      iter #   3 total cpu time : 26822.0 secs   av.it.:  10.6
      thresh= 4.087E-03 alpha_mix =  0.700 |ddv_scf|^2 =  3.306E-07

      iter #   4 total cpu time : 27209.7 secs   av.it.:  15.8
      thresh= 5.750E-05 alpha_mix =  0.700 |ddv_scf|^2 =  4.763E-07

      iter #   5 total cpu time : 27567.7 secs   av.it.:  14.9
      thresh= 6.902E-05 alpha_mix =  0.700 |ddv_scf|^2 =  1.828E-07

      iter #   6 total cpu time : 27906.9 secs   av.it.:  13.8
      thresh= 4.276E-05 alpha_mix =  0.700 |ddv_scf|^2 =  4.944E-09

      iter #   7 total cpu time : 28249.1 secs   av.it.:  13.8
      thresh= 7.031E-06 alpha_mix =  0.700 |ddv_scf|^2 =  1.958E-10

      iter #   8 total cpu time : 28563.2 secs   av.it.:  12.8
      thresh= 1.399E-06 alpha_mix =  0.700 |ddv_scf|^2 =  1.504E-11

      iter #   9 total cpu time : 28921.9 secs   av.it.:  14.8
      thresh= 3.878E-07 alpha_mix =  0.700 |ddv_scf|^2 =  2.768E-13

      iter #  10 total cpu time : 29296.1 secs   av.it.:  15.6
      thresh= 5.262E-08 alpha_mix =  0.700 |ddv_scf|^2 =  1.790E-14

      iter #  11 total cpu time : 29679.0 secs   av.it.:  15.7
      thresh= 1.338E-08 alpha_mix =  0.700 |ddv_scf|^2 =  6.713E-14

      iter #  12 total cpu time : 30047.8 secs   av.it.:  15.2
      thresh= 2.591E-08 alpha_mix =  0.700 |ddv_scf|^2 =  1.236E-13

      iter #  13 total cpu time : 30396.8 secs   av.it.:  14.3
      thresh= 3.516E-08 alpha_mix =  0.700 |ddv_scf|^2 =  2.618E-15

     End of self-consistent calculation

     Convergence has been achieved 


     Representation #   6 mode #   6

     Self-consistent Calculation

      iter #   1 total cpu time : 30563.1 secs   av.it.:   4.3
      thresh= 1.000E-02 alpha_mix =  0.700 |ddv_scf|^2 =  1.488E-08

      iter #   2 total cpu time : 30937.7 secs   av.it.:  16.0
      thresh= 1.220E-05 alpha_mix =  0.700 |ddv_scf|^2 =  2.226E-09

      iter #   3 total cpu time : 31314.7 secs   av.it.:  16.5
      thresh= 4.718E-06 alpha_mix =  0.700 |ddv_scf|^2 =  2.041E-09

      iter #   4 total cpu time : 31666.3 secs   av.it.:  15.0
      thresh= 4.518E-06 alpha_mix =  0.700 |ddv_scf|^2 =  6.192E-09

      iter #   5 total cpu time : 31995.6 secs   av.it.:  14.0
      thresh= 7.869E-06 alpha_mix =  0.700 |ddv_scf|^2 =  5.632E-12

      iter #   6 total cpu time : 32344.3 secs   av.it.:  15.0
      thresh= 2.373E-07 alpha_mix =  0.700 |ddv_scf|^2 =  9.711E-14

      iter #   7 total cpu time : 32707.2 secs   av.it.:  15.8
      thresh= 3.116E-08 alpha_mix =  0.700 |ddv_scf|^2 =  2.945E-14

      iter #   8 total cpu time : 33046.3 secs   av.it.:  14.7
      thresh= 1.716E-08 alpha_mix =  0.700 |ddv_scf|^2 =  1.322E-16

     End of self-consistent calculation

     Convergence has been achieved 


     Representation #   7 mode #   7

     Self-consistent Calculation

      iter #   1 total cpu time : 33281.7 secs   av.it.:   8.5
      thresh= 1.000E-02 alpha_mix =  0.700 |ddv_scf|^2 =  2.174E-06

      iter #   2 total cpu time : 33663.4 secs   av.it.:  16.0
      thresh= 1.474E-04 alpha_mix =  0.700 |ddv_scf|^2 =  4.939E-07

      iter #   3 total cpu time : 34039.0 secs   av.it.:  16.1
      thresh= 7.028E-05 alpha_mix =  0.700 |ddv_scf|^2 =  7.741E-08

      iter #   4 total cpu time : 34396.5 secs   av.it.:  15.0
      thresh= 2.782E-05 alpha_mix =  0.700 |ddv_scf|^2 =  1.681E-07

      iter #   5 total cpu time : 34729.1 secs   av.it.:  13.7
      thresh= 4.100E-05 alpha_mix =  0.700 |ddv_scf|^2 =  5.118E-10

      iter #   6 total cpu time : 35092.4 secs   av.it.:  15.2
      thresh= 2.262E-06 alpha_mix =  0.700 |ddv_scf|^2 =  1.789E-12

      iter #   7 total cpu time : 35466.4 secs   av.it.:  15.9
      thresh= 1.338E-07 alpha_mix =  0.700 |ddv_scf|^2 =  2.305E-13

      iter #   8 total cpu time : 35819.5 secs   av.it.:  15.4
      thresh= 4.801E-08 alpha_mix =  0.700 |ddv_scf|^2 =  1.356E-14

      iter #   9 total cpu time : 36205.5 secs   av.it.:  16.9
      thresh= 1.165E-08 alpha_mix =  0.700 |ddv_scf|^2 =  2.709E-13

      iter #  10 total cpu time : 36533.1 secs   av.it.:  13.6
      thresh= 5.205E-08 alpha_mix =  0.700 |ddv_scf|^2 =  2.824E-15

     End of self-consistent calculation

     Convergence has been achieved 


     Representation #   8 mode #   8

     Self-consistent Calculation

      iter #   1 total cpu time : 36704.8 secs   av.it.:   4.5
      thresh= 1.000E-02 alpha_mix =  0.700 |ddv_scf|^2 =  2.453E-08

      iter #   2 total cpu time : 37079.5 secs   av.it.:  16.0
      thresh= 1.566E-05 alpha_mix =  0.700 |ddv_scf|^2 =  4.946E-09

      iter #   3 total cpu time : 37454.6 secs   av.it.:  16.4
      thresh= 7.032E-06 alpha_mix =  0.700 |ddv_scf|^2 =  3.598E-09

      iter #   4 total cpu time : 37793.3 secs   av.it.:  14.5
      thresh= 5.998E-06 alpha_mix =  0.700 |ddv_scf|^2 =  2.234E-09

      iter #   5 total cpu time : 38125.3 secs   av.it.:  14.1
      thresh= 4.727E-06 alpha_mix =  0.700 |ddv_scf|^2 =  2.955E-11

      iter #   6 total cpu time : 38476.1 secs   av.it.:  14.8
      thresh= 5.436E-07 alpha_mix =  0.700 |ddv_scf|^2 =  2.433E-13

      iter #   7 total cpu time : 38822.8 secs   av.it.:  14.8
      thresh= 4.932E-08 alpha_mix =  0.700 |ddv_scf|^2 =  2.646E-15

     End of self-consistent calculation

     Convergence has been achieved 


     Representation #   9 mode #   9

     Self-consistent Calculation

      iter #   1 total cpu time : 39000.2 secs   av.it.:   4.5
      thresh= 1.000E-02 alpha_mix =  0.700 |ddv_scf|^2 =  2.453E-08

      iter #   2 total cpu time : 39381.5 secs   av.it.:  16.0
      thresh= 1.566E-05 alpha_mix =  0.700 |ddv_scf|^2 =  4.946E-09

      iter #   3 total cpu time : 39767.1 secs   av.it.:  16.4
      thresh= 7.033E-06 alpha_mix =  0.700 |ddv_scf|^2 =  3.582E-09

      iter #   4 total cpu time : 40116.2 secs   av.it.:  14.5
      thresh= 5.985E-06 alpha_mix =  0.700 |ddv_scf|^2 =  2.240E-09

      iter #   5 total cpu time : 40461.7 secs   av.it.:  14.1
      thresh= 4.733E-06 alpha_mix =  0.700 |ddv_scf|^2 =  2.958E-11

      iter #   6 total cpu time : 40816.5 secs   av.it.:  14.8
      thresh= 5.438E-07 alpha_mix =  0.700 |ddv_scf|^2 =  2.433E-13

      iter #   7 total cpu time : 41172.0 secs   av.it.:  14.8
      thresh= 4.932E-08 alpha_mix =  0.700 |ddv_scf|^2 =  2.656E-15

     End of self-consistent calculation

     Convergence has been achieved 


     Representation #  10 mode #  10

     Self-consistent Calculation

      iter #   1 total cpu time : 41368.7 secs   av.it.:   5.1
      thresh= 1.000E-02 alpha_mix =  0.700 |ddv_scf|^2 =  1.745E-05

      iter #   2 total cpu time : 41752.1 secs   av.it.:  14.9
      thresh= 4.178E-04 alpha_mix =  0.700 |ddv_scf|^2 =  1.670E-03

      iter #   3 total cpu time : 42049.3 secs   av.it.:  10.6
      thresh= 4.087E-03 alpha_mix =  0.700 |ddv_scf|^2 =  3.306E-07

      iter #   4 total cpu time : 42432.5 secs   av.it.:  15.7
      thresh= 5.749E-05 alpha_mix =  0.700 |ddv_scf|^2 =  4.764E-07

      iter #   5 total cpu time : 42789.9 secs   av.it.:  14.9
      thresh= 6.902E-05 alpha_mix =  0.700 |ddv_scf|^2 =  1.827E-07

      iter #   6 total cpu time : 43125.3 secs   av.it.:  13.8
      thresh= 4.275E-05 alpha_mix =  0.700 |ddv_scf|^2 =  4.942E-09

      iter #   7 total cpu time : 43465.6 secs   av.it.:  13.8
      thresh= 7.030E-06 alpha_mix =  0.700 |ddv_scf|^2 =  1.958E-10

      iter #   8 total cpu time : 43781.4 secs   av.it.:  12.8
      thresh= 1.399E-06 alpha_mix =  0.700 |ddv_scf|^2 =  1.502E-11

      iter #   9 total cpu time : 44131.3 secs   av.it.:  14.8
      thresh= 3.876E-07 alpha_mix =  0.700 |ddv_scf|^2 =  2.763E-13

      iter #  10 total cpu time : 44500.8 secs   av.it.:  15.6
      thresh= 5.256E-08 alpha_mix =  0.700 |ddv_scf|^2 =  2.823E-14

      iter #  11 total cpu time : 44870.2 secs   av.it.:  15.3
      thresh= 1.680E-08 alpha_mix =  0.700 |ddv_scf|^2 =  5.784E-14

      iter #  12 total cpu time : 45244.6 secs   av.it.:  15.7
      thresh= 2.405E-08 alpha_mix =  0.700 |ddv_scf|^2 =  2.261E-13

      iter #  13 total cpu time : 45593.4 secs   av.it.:  14.3
      thresh= 4.755E-08 alpha_mix =  0.700 |ddv_scf|^2 =  7.733E-16

     End of self-consistent calculation

     Convergence has been achieved 


     Representation #  11 mode #  11

     Self-consistent Calculation

      iter #   1 total cpu time : 45886.6 secs   av.it.:  10.0
      thresh= 1.000E-02 alpha_mix =  0.700 |ddv_scf|^2 =  1.958E-03

      iter #   2 total cpu time : 46275.0 secs   av.it.:  14.9
      thresh= 4.424E-03 alpha_mix =  0.700 |ddv_scf|^2 =  1.888E-01

      iter #   3 total cpu time : 46629.7 secs   av.it.:  13.4
      thresh= 1.000E-02 alpha_mix =  0.700 |ddv_scf|^2 =  2.373E-05

      iter #   4 total cpu time : 47020.5 secs   av.it.:  15.9
      thresh= 4.871E-04 alpha_mix =  0.700 |ddv_scf|^2 =  4.639E-05

      iter #   5 total cpu time : 47380.1 secs   av.it.:  14.9
      thresh= 6.811E-04 alpha_mix =  0.700 |ddv_scf|^2 =  2.132E-05

      iter #   6 total cpu time : 47713.6 secs   av.it.:  13.7
      thresh= 4.618E-04 alpha_mix =  0.700 |ddv_scf|^2 =  1.206E-06

      iter #   7 total cpu time : 48051.4 secs   av.it.:  13.9
      thresh= 1.098E-04 alpha_mix =  0.700 |ddv_scf|^2 =  6.342E-09

      iter #   8 total cpu time : 48416.2 secs   av.it.:  15.1
      thresh= 7.964E-06 alpha_mix =  0.700 |ddv_scf|^2 =  5.444E-10

      iter #   9 total cpu time : 48777.2 secs   av.it.:  14.6
      thresh= 2.333E-06 alpha_mix =  0.700 |ddv_scf|^2 =  1.051E-11

      iter #  10 total cpu time : 49131.6 secs   av.it.:  14.8
      thresh= 3.241E-07 alpha_mix =  0.700 |ddv_scf|^2 =  1.388E-12

      iter #  11 total cpu time : 49490.8 secs   av.it.:  14.9
      thresh= 1.178E-07 alpha_mix =  0.700 |ddv_scf|^2 =  1.193E-12

      iter #  12 total cpu time : 49850.5 secs   av.it.:  15.3
      thresh= 1.092E-07 alpha_mix =  0.700 |ddv_scf|^2 =  1.126E-12

      iter #  13 total cpu time : 50207.8 secs   av.it.:  14.7
      thresh= 1.061E-07 alpha_mix =  0.700 |ddv_scf|^2 =  1.564E-12

      iter #  14 total cpu time : 50548.3 secs   av.it.:  14.2
      thresh= 1.251E-07 alpha_mix =  0.700 |ddv_scf|^2 =  1.151E-13

      iter #  15 total cpu time : 50907.3 secs   av.it.:  15.2
      thresh= 3.392E-08 alpha_mix =  0.700 |ddv_scf|^2 =  3.572E-14

      iter #  16 total cpu time : 51257.1 secs   av.it.:  14.1
      thresh= 1.890E-08 alpha_mix =  0.700 |ddv_scf|^2 =  2.890E-14

      iter #  17 total cpu time : 51629.0 secs   av.it.:  15.5
      thresh= 1.700E-08 alpha_mix =  0.700 |ddv_scf|^2 =  7.569E-14

      iter #  18 total cpu time : 51985.5 secs   av.it.:  15.0
      thresh= 2.751E-08 alpha_mix =  0.700 |ddv_scf|^2 =  8.509E-14

      iter #  19 total cpu time : 52338.4 secs   av.it.:  14.8
      thresh= 2.917E-08 alpha_mix =  0.700 |ddv_scf|^2 =  1.149E-13

      iter #  20 total cpu time : 52674.6 secs   av.it.:  13.7
      thresh= 3.390E-08 alpha_mix =  0.700 |ddv_scf|^2 =  3.248E-15

     End of self-consistent calculation

     Convergence has been achieved 


     Representation #  12 mode #  12

     Self-consistent Calculation

      iter #   1 total cpu time : 52907.0 secs   av.it.:   8.5
      thresh= 1.000E-02 alpha_mix =  0.700 |ddv_scf|^2 =  2.174E-06

      iter #   2 total cpu time : 53280.4 secs   av.it.:  16.0
      thresh= 1.474E-04 alpha_mix =  0.700 |ddv_scf|^2 =  4.940E-07

      iter #   3 total cpu time : 53652.3 secs   av.it.:  16.1
      thresh= 7.028E-05 alpha_mix =  0.700 |ddv_scf|^2 =  7.767E-08

      iter #   4 total cpu time : 54004.2 secs   av.it.:  15.0
      thresh= 2.787E-05 alpha_mix =  0.700 |ddv_scf|^2 =  1.679E-07

      iter #   5 total cpu time : 54334.1 secs   av.it.:  13.6
      thresh= 4.097E-05 alpha_mix =  0.700 |ddv_scf|^2 =  5.117E-10

      iter #   6 total cpu time : 54691.7 secs   av.it.:  15.2
      thresh= 2.262E-06 alpha_mix =  0.700 |ddv_scf|^2 =  1.790E-12

      iter #   7 total cpu time : 55063.1 secs   av.it.:  15.9
      thresh= 1.338E-07 alpha_mix =  0.700 |ddv_scf|^2 =  2.305E-13

      iter #   8 total cpu time : 55414.6 secs   av.it.:  15.3
      thresh= 4.801E-08 alpha_mix =  0.700 |ddv_scf|^2 =  1.084E-14

      iter #   9 total cpu time : 55795.0 secs   av.it.:  16.7
      thresh= 1.041E-08 alpha_mix =  0.700 |ddv_scf|^2 =  7.585E-14

      iter #  10 total cpu time : 56126.6 secs   av.it.:  13.9
      thresh= 2.754E-08 alpha_mix =  0.700 |ddv_scf|^2 =  4.564E-15

     End of self-consistent calculation

     Convergence has been achieved 


     Representation #  13 mode #  13

     Self-consistent Calculation

      iter #   1 total cpu time : 56335.8 secs   av.it.:   7.6
      thresh= 1.000E-02 alpha_mix =  0.700 |ddv_scf|^2 =  6.986E-07

      iter #   2 total cpu time : 56723.3 secs   av.it.:  16.7
      thresh= 8.358E-05 alpha_mix =  0.700 |ddv_scf|^2 =  5.626E-06

      iter #   3 total cpu time : 57070.4 secs   av.it.:  14.7
      thresh= 2.372E-04 alpha_mix =  0.700 |ddv_scf|^2 =  5.637E-06

      iter #   4 total cpu time : 57407.0 secs   av.it.:  14.2
      thresh= 2.374E-04 alpha_mix =  0.700 |ddv_scf|^2 =  1.806E-07

      iter #   5 total cpu time : 57733.0 secs   av.it.:  13.8
      thresh= 4.250E-05 alpha_mix =  0.700 |ddv_scf|^2 =  1.828E-08

      iter #   6 total cpu time : 58060.9 secs   av.it.:  13.6
      thresh= 1.352E-05 alpha_mix =  0.700 |ddv_scf|^2 =  7.644E-11

      iter #   7 total cpu time : 58396.0 secs   av.it.:  14.3
      thresh= 8.743E-07 alpha_mix =  0.700 |ddv_scf|^2 =  9.410E-14

      iter #   8 total cpu time : 58783.8 secs   av.it.:  16.9
      thresh= 3.068E-08 alpha_mix =  0.700 |ddv_scf|^2 =  2.558E-12

      iter #   9 total cpu time : 59107.9 secs   av.it.:  13.6
      thresh= 1.599E-07 alpha_mix =  0.700 |ddv_scf|^2 =  1.008E-14

      iter #  10 total cpu time : 59466.0 secs   av.it.:  15.6
      thresh= 1.004E-08 alpha_mix =  0.700 |ddv_scf|^2 =  1.437E-15

     End of self-consistent calculation

     Convergence has been achieved 


     Representation #  14 mode #  14

     Self-consistent Calculation

      iter #   1 total cpu time : 59635.0 secs   av.it.:   4.3
      thresh= 1.000E-02 alpha_mix =  0.700 |ddv_scf|^2 =  1.488E-08

      iter #   2 total cpu time : 60016.7 secs   av.it.:  16.0
      thresh= 1.220E-05 alpha_mix =  0.700 |ddv_scf|^2 =  2.225E-09

      iter #   3 total cpu time : 60397.9 secs   av.it.:  16.5
      thresh= 4.717E-06 alpha_mix =  0.700 |ddv_scf|^2 =  2.041E-09

      iter #   4 total cpu time : 60756.0 secs   av.it.:  15.0
      thresh= 4.518E-06 alpha_mix =  0.700 |ddv_scf|^2 =  6.190E-09

      iter #   5 total cpu time : 61091.8 secs   av.it.:  14.0
      thresh= 7.867E-06 alpha_mix =  0.700 |ddv_scf|^2 =  5.629E-12

      iter #   6 total cpu time : 61445.6 secs   av.it.:  15.0
      thresh= 2.373E-07 alpha_mix =  0.700 |ddv_scf|^2 =  9.698E-14

      iter #   7 total cpu time : 61815.1 secs   av.it.:  15.8
      thresh= 3.114E-08 alpha_mix =  0.700 |ddv_scf|^2 =  2.943E-14

      iter #   8 total cpu time : 62159.6 secs   av.it.:  14.7
      thresh= 1.716E-08 alpha_mix =  0.700 |ddv_scf|^2 =  2.223E-16

     End of self-consistent calculation

     Convergence has been achieved 


     Representation #  15 mode #  15

     Self-consistent Calculation

      iter #   1 total cpu time : 62371.4 secs   av.it.:   7.6
      thresh= 1.000E-02 alpha_mix =  0.700 |ddv_scf|^2 =  6.986E-07

      iter #   2 total cpu time : 62759.0 secs   av.it.:  16.7
      thresh= 8.358E-05 alpha_mix =  0.700 |ddv_scf|^2 =  5.627E-06

      iter #   3 total cpu time : 63108.0 secs   av.it.:  14.7
      thresh= 2.372E-04 alpha_mix =  0.700 |ddv_scf|^2 =  5.636E-06

      iter #   4 total cpu time : 63451.2 secs   av.it.:  14.2
      thresh= 2.374E-04 alpha_mix =  0.700 |ddv_scf|^2 =  1.807E-07

      iter #   5 total cpu time : 63782.6 secs   av.it.:  13.8
      thresh= 4.250E-05 alpha_mix =  0.700 |ddv_scf|^2 =  1.828E-08

      iter #   6 total cpu time : 64113.8 secs   av.it.:  13.6
      thresh= 1.352E-05 alpha_mix =  0.700 |ddv_scf|^2 =  7.643E-11

      iter #   7 total cpu time : 64455.1 secs   av.it.:  14.3
      thresh= 8.743E-07 alpha_mix =  0.700 |ddv_scf|^2 =  1.770E-13

      iter #   8 total cpu time : 64842.0 secs   av.it.:  16.7
      thresh= 4.207E-08 alpha_mix =  0.700 |ddv_scf|^2 =  4.684E-12

      iter #   9 total cpu time : 65174.5 secs   av.it.:  13.7
      thresh= 2.164E-07 alpha_mix =  0.700 |ddv_scf|^2 =  5.095E-15

     End of self-consistent calculation

     Convergence has been achieved 

     Number of q in the star =    4
     List of q in the star:
          1   0.000000003   0.000000001   0.250000000
          2  -0.000000003  -0.000000001  -0.250000000
          3   0.250000000  -0.000000008   0.000000003
          4  -0.250000000   0.000000008  -0.000000003

     Diagonalizing the dynamical matrix

     q = (    0.000000003   0.000000001   0.250000000 ) 

 **************************************************************************
     freq (    1) =       1.156401 [THz] =      38.573390 [cm-1]
     freq (    2) =       1.158081 [THz] =      38.629433 [cm-1]
     freq (    3) =       1.957688 [THz] =      65.301458 [cm-1]
     freq (    4) =       2.516172 [THz] =      83.930469 [cm-1]
     freq (    5) =       2.518649 [THz] =      84.013078 [cm-1]
     freq (    6) =       3.051794 [THz] =     101.796883 [cm-1]
     freq (    7) =      10.769581 [THz] =     359.234568 [cm-1]
     freq (    8) =      17.893420 [THz] =     596.860251 [cm-1]
     freq (    9) =      17.893679 [THz] =     596.868871 [cm-1]
     freq (   10) =      21.636761 [THz] =     721.724664 [cm-1]
     freq (   11) =      21.636811 [THz] =     721.726340 [cm-1]
     freq (   12) =      22.905988 [THz] =     764.061531 [cm-1]
     freq (   13) =      25.878124 [THz] =     863.201301 [cm-1]
     freq (   14) =      26.831714 [THz] =     895.009637 [cm-1]
     freq (   15) =      26.831934 [THz] =     895.016965 [cm-1]
 **************************************************************************

     Gaussian Broadening:   0.005 Ry, ngauss=   0
     DOS =  4.219570 states/spin/Ry/Unit Cell at Ef= 11.357249 eV
     double delta at Ef =146.156016
     lambda(    1)=  0.0033   gamma=    0.02 GHz
     lambda(    2)=  0.0032   gamma=    0.02 GHz
     lambda(    3)=  0.1512   gamma=    2.34 GHz
     lambda(    4)=  0.0006   gamma=    0.02 GHz
     lambda(    5)=  0.0006   gamma=    0.02 GHz
     lambda(    6)=  0.4787   gamma=   17.97 GHz
     lambda(    7)=  4.4722   gamma= 2090.07 GHz
     lambda(    8)=  0.0014   gamma=    1.79 GHz
     lambda(    9)=  0.0014   gamma=    1.79 GHz
     lambda(   10)=  0.0163   gamma=   30.83 GHz
     lambda(   11)=  0.0163   gamma=   30.83 GHz
     lambda(   12)=  0.1385   gamma=  292.76 GHz
     lambda(   13)=  0.0219   gamma=   59.16 GHz
     lambda(   14)=  0.0011   gamma=    3.24 GHz
     lambda(   15)=  0.0011   gamma=    3.24 GHz

     Gaussian Broadening:   0.010 Ry, ngauss=   0
     DOS =  4.820728 states/spin/Ry/Unit Cell at Ef= 11.343101 eV
     double delta at Ef =132.935228
     lambda(    1)=  0.0122   gamma=    0.08 GHz
     lambda(    2)=  0.0122   gamma=    0.08 GHz
     lambda(    3)=  0.1057   gamma=    1.86 GHz
     lambda(    4)=  0.0034   gamma=    0.10 GHz
     lambda(    5)=  0.0034   gamma=    0.10 GHz
     lambda(    6)=  0.2507   gamma=   10.75 GHz
     lambda(    7)=  1.9152   gamma= 1022.56 GHz
     lambda(    8)=  0.0075   gamma=   11.08 GHz
     lambda(    9)=  0.0075   gamma=   11.08 GHz
     lambda(   10)=  0.0297   gamma=   63.92 GHz
     lambda(   11)=  0.0297   gamma=   63.93 GHz
     lambda(   12)=  0.0832   gamma=  200.93 GHz
     lambda(   13)=  0.0505   gamma=  155.61 GHz
     lambda(   14)=  0.0057   gamma=   18.84 GHz
     lambda(   15)=  0.0057   gamma=   18.84 GHz

     Gaussian Broadening:   0.015 Ry, ngauss=   0
     DOS =  5.665693 states/spin/Ry/Unit Cell at Ef= 11.344029 eV
     double delta at Ef =130.953796
     lambda(    1)=  0.0149   gamma=    0.11 GHz
     lambda(    2)=  0.0148   gamma=    0.11 GHz
     lambda(    3)=  0.0790   gamma=    1.64 GHz
     lambda(    4)=  0.0040   gamma=    0.14 GHz
     lambda(    5)=  0.0040   gamma=    0.14 GHz
     lambda(    6)=  0.1843   gamma=    9.28 GHz
     lambda(    7)=  1.2165   gamma=  763.36 GHz
     lambda(    8)=  0.0089   gamma=   15.43 GHz
     lambda(    9)=  0.0089   gamma=   15.43 GHz
     lambda(   10)=  0.0295   gamma=   74.66 GHz
     lambda(   11)=  0.0295   gamma=   74.67 GHz
     lambda(   12)=  0.0611   gamma=  173.44 GHz
     lambda(   13)=  0.0419   gamma=  151.71 GHz
     lambda(   14)=  0.0055   gamma=   21.42 GHz
     lambda(   15)=  0.0055   gamma=   21.42 GHz

     Gaussian Broadening:   0.020 Ry, ngauss=   0
     DOS =  5.846179 states/spin/Ry/Unit Cell at Ef= 11.349272 eV
     double delta at Ef =114.788569
     lambda(    1)=  0.0151   gamma=    0.11 GHz
     lambda(    2)=  0.0150   gamma=    0.11 GHz
     lambda(    3)=  0.0620   gamma=    1.33 GHz
     lambda(    4)=  0.0041   gamma=    0.14 GHz
     lambda(    5)=  0.0041   gamma=    0.14 GHz
     lambda(    6)=  0.1498   gamma=    7.79 GHz
     lambda(    7)=  0.9011   gamma=  583.50 GHz
     lambda(    8)=  0.0085   gamma=   15.23 GHz
     lambda(    9)=  0.0085   gamma=   15.23 GHz
     lambda(   10)=  0.0252   gamma=   65.94 GHz
     lambda(   11)=  0.0252   gamma=   65.94 GHz
     lambda(   12)=  0.0474   gamma=  138.91 GHz
     lambda(   13)=  0.0354   gamma=  132.33 GHz
     lambda(   14)=  0.0046   gamma=   18.68 GHz
     lambda(   15)=  0.0046   gamma=   18.68 GHz

     Gaussian Broadening:   0.025 Ry, ngauss=   0
     DOS =  5.784229 states/spin/Ry/Unit Cell at Ef= 11.353943 eV
     double delta at Ef = 98.318626
     lambda(    1)=  0.0150   gamma=    0.11 GHz
     lambda(    2)=  0.0150   gamma=    0.11 GHz
     lambda(    3)=  0.0511   gamma=    1.08 GHz
     lambda(    4)=  0.0042   gamma=    0.15 GHz
     lambda(    5)=  0.0042   gamma=    0.15 GHz
     lambda(    6)=  0.1272   gamma=    6.54 GHz
     lambda(    7)=  0.7220   gamma=  462.54 GHz
     lambda(    8)=  0.0083   gamma=   14.60 GHz
     lambda(    9)=  0.0083   gamma=   14.60 GHz
     lambda(   10)=  0.0217   gamma=   56.07 GHz
     lambda(   11)=  0.0217   gamma=   56.07 GHz
     lambda(   12)=  0.0387   gamma=  112.20 GHz
     lambda(   13)=  0.0317   gamma=  117.38 GHz
     lambda(   14)=  0.0041   gamma=   16.41 GHz
     lambda(   15)=  0.0041   gamma=   16.40 GHz

     Gaussian Broadening:   0.030 Ry, ngauss=   0
     DOS =  5.528526 states/spin/Ry/Unit Cell at Ef= 11.357748 eV
     double delta at Ef = 85.016008
     lambda(    1)=  0.0161   gamma=    0.11 GHz
     lambda(    2)=  0.0161   gamma=    0.11 GHz
     lambda(    3)=  0.0447   gamma=    0.90 GHz
     lambda(    4)=  0.0048   gamma=    0.16 GHz
     lambda(    5)=  0.0048   gamma=    0.16 GHz
     lambda(    6)=  0.1139   gamma=    5.60 GHz
     lambda(    7)=  0.6250   gamma=  382.67 GHz
     lambda(    8)=  0.0091   gamma=   15.30 GHz
     lambda(    9)=  0.0091   gamma=   15.30 GHz
     lambda(   10)=  0.0197   gamma=   48.61 GHz
     lambda(   11)=  0.0197   gamma=   48.61 GHz
     lambda(   12)=  0.0338   gamma=   93.57 GHz
     lambda(   13)=  0.0302   gamma=  106.66 GHz
     lambda(   14)=  0.0041   gamma=   15.48 GHz
     lambda(   15)=  0.0041   gamma=   15.48 GHz

     Gaussian Broadening:   0.035 Ry, ngauss=   0
     DOS =  5.183902 states/spin/Ry/Unit Cell at Ef= 11.361574 eV
     double delta at Ef = 75.369904
     lambda(    1)=  0.0188   gamma=    0.12 GHz
     lambda(    2)=  0.0188   gamma=    0.12 GHz
     lambda(    3)=  0.0411   gamma=    0.78 GHz
     lambda(    4)=  0.0062   gamma=    0.19 GHz
     lambda(    5)=  0.0061   gamma=    0.19 GHz
     lambda(    6)=  0.1075   gamma=    4.96 GHz
     lambda(    7)=  0.5765   gamma=  331.02 GHz
     lambda(    8)=  0.0113   gamma=   17.97 GHz
     lambda(    9)=  0.0113   gamma=   17.97 GHz
     lambda(   10)=  0.0191   gamma=   44.19 GHz
     lambda(   11)=  0.0191   gamma=   44.19 GHz
     lambda(   12)=  0.0314   gamma=   81.56 GHz
     lambda(   13)=  0.0300   gamma=   99.52 GHz
     lambda(   14)=  0.0045   gamma=   15.88 GHz
     lambda(   15)=  0.0045   gamma=   15.88 GHz

     Gaussian Broadening:   0.040 Ry, ngauss=   0
     DOS =  4.842653 states/spin/Ry/Unit Cell at Ef= 11.367155 eV
     double delta at Ef = 68.959768
     lambda(    1)=  0.0230   gamma=    0.14 GHz
     lambda(    2)=  0.0229   gamma=    0.14 GHz
     lambda(    3)=  0.0391   gamma=    0.69 GHz
     lambda(    4)=  0.0086   gamma=    0.25 GHz
     lambda(    5)=  0.0086   gamma=    0.25 GHz
     lambda(    6)=  0.1055   gamma=    4.55 GHz
     lambda(    7)=  0.5546   gamma=  297.45 GHz
     lambda(    8)=  0.0155   gamma=   22.94 GHz
     lambda(    9)=  0.0155   gamma=   22.94 GHz
     lambda(   10)=  0.0198   gamma=   42.79 GHz
     lambda(   11)=  0.0198   gamma=   42.79 GHz
     lambda(   12)=  0.0307   gamma=   74.49 GHz
     lambda(   13)=  0.0308   gamma=   95.36 GHz
     lambda(   14)=  0.0052   gamma=   17.37 GHz
     lambda(   15)=  0.0052   gamma=   17.37 GHz

     Gaussian Broadening:   0.045 Ry, ngauss=   0
     DOS =  4.550597 states/spin/Ry/Unit Cell at Ef= 11.376057 eV
     double delta at Ef = 65.299481
     lambda(    1)=  0.0288   gamma=    0.17 GHz
     lambda(    2)=  0.0287   gamma=    0.17 GHz
     lambda(    3)=  0.0381   gamma=    0.63 GHz
     lambda(    4)=  0.0125   gamma=    0.34 GHz
     lambda(    5)=  0.0125   gamma=    0.34 GHz
     lambda(    6)=  0.1066   gamma=    4.31 GHz
     lambda(    7)=  0.5458   gamma=  275.08 GHz
     lambda(    8)=  0.0219   gamma=   30.51 GHz
     lambda(    9)=  0.0219   gamma=   30.50 GHz
     lambda(   10)=  0.0218   gamma=   44.44 GHz
     lambda(   11)=  0.0218   gamma=   44.44 GHz
     lambda(   12)=  0.0311   gamma=   71.01 GHz
     lambda(   13)=  0.0322   gamma=   93.81 GHz
     lambda(   14)=  0.0063   gamma=   19.82 GHz
     lambda(   15)=  0.0063   gamma=   19.82 GHz

     Gaussian Broadening:   0.050 Ry, ngauss=   0
     DOS =  4.331152 states/spin/Ry/Unit Cell at Ef= 11.388607 eV
     double delta at Ef = 64.045624
     lambda(    1)=  0.0360   gamma=    0.20 GHz
     lambda(    2)=  0.0359   gamma=    0.20 GHz
     lambda(    3)=  0.0376   gamma=    0.60 GHz
     lambda(    4)=  0.0181   gamma=    0.47 GHz
     lambda(    5)=  0.0180   gamma=    0.47 GHz
     lambda(    6)=  0.1095   gamma=    4.22 GHz
     lambda(    7)=  0.5422   gamma=  260.08 GHz
     lambda(    8)=  0.0308   gamma=   40.74 GHz
     lambda(    9)=  0.0308   gamma=   40.74 GHz
     lambda(   10)=  0.0254   gamma=   49.20 GHz
     lambda(   11)=  0.0254   gamma=   49.20 GHz
     lambda(   12)=  0.0324   gamma=   70.28 GHz
     lambda(   13)=  0.0341   gamma=   94.58 GHz
     lambda(   14)=  0.0078   gamma=   23.13 GHz
     lambda(   15)=  0.0078   gamma=   23.12 GHz

     Calculation of q =   -0.0000000  -0.0000000  -0.5000000

     G-vector sticks info
     --------------------
     sticks:   dense  smooth     PW     G-vecs:    dense   smooth      PW
     Sum        2933    1465    441               119177    42115    7153

     Using Slab Decomposition


     Title: 
     BaAuH3 phonon + electron-phonon 4x4x4 q (RTSC A10 - SrAuH3 A-site Ba-varian


     bravais-lattice index     =            0
     lattice parameter (alat)  =       7.5797  a.u.
     unit-cell volume          =     435.4739 (a.u.)^3
     number of atoms/cell      =            5
     number of atomic types    =            3
     number of electrons       =        24.00
     number of Kohn-Sham states=           16
     kinetic-energy cutoff     =      80.0000  Ry
     charge density cutoff     =     640.0000  Ry
     Exchange-correlation= PBE
                           (   1   4   3   4   0   0   0)

     celldm(1)=   7.579729  celldm(2)=   0.000000  celldm(3)=   0.000000
     celldm(4)=   0.000000  celldm(5)=   0.000000  celldm(6)=   0.000000

     crystal axes: (cart. coord. in units of alat)
               a(1) = (   1.000000   0.000000  -0.000000 )  
               a(2) = (   0.000000   1.000002  -0.000000 )  
               a(3) = (  -0.000000  -0.000000   1.000000 )  

     reciprocal axes: (cart. coord. in units 2 pi/alat)
               b(1) = (  1.000000 -0.000000  0.000000 )  
               b(2) = ( -0.000000  0.999998  0.000000 )  
               b(3) = (  0.000000  0.000000  1.000000 )  


     PseudoPot. # 1 for Ba read from file:
     ./pseudo/Ba.pbe-spn-rrkjus_psl.1.0.0.UPF
     MD5 check sum: 9f28e7b3efa99dece8b35669272401d8
     Pseudo is Ultrasoft + core correction, Zval = 10.0
     Generated using &quot;atomic&quot; code by A. Dal Corso  v.6.2.2
     Using radial grid of 1251 points,  7 beta functions with: 
                l(1) =   0
                l(2) =   0
                l(3) =   0
                l(4) =   1
                l(5) =   1
                l(6) =   2
                l(7) =   2
     Q(r) pseudized with 0 coefficients 


     PseudoPot. # 2 for Au read from file:
     ./pseudo/Au.pbe-n-rrkjus_psl.1.0.0.UPF
     MD5 check sum: d7e77ba19504afed2c9b41c931dde4f0
     Pseudo is Ultrasoft + core correction, Zval = 11.0
     Generated using &quot;atomic&quot; code by A. Dal Corso  v.6.3
     Using radial grid of 1279 points,  6 beta functions with: 
                l(1) =   0
                l(2) =   0
                l(3) =   1
                l(4) =   1
                l(5) =   2
                l(6) =   2
     Q(r) pseudized with 0 coefficients 


     PseudoPot. # 3 for H  read from file:
     ./pseudo/H.pbe-rrkjus_psl.1.0.0.UPF
     MD5 check sum: 3f4114867bd07edc7f1424d066fc1888
     Pseudo is Ultrasoft, Zval =  1.0
     Generated using &quot;atomic&quot; code by A. Dal Corso  v.6.3MaX
     Using radial grid of  929 points,  2 beta functions with: 
                l(1) =   0
                l(2) =   0
     Q(r) pseudized with 0 coefficients 


     atomic species   valence    mass     pseudopotential
     Ba               10.00   137.32700     Ba( 1.00)
     Au               11.00   196.96700     Au( 1.00)
     H                 1.00     1.00800     H ( 1.00)

     16 Sym. Ops., with inversion, found



   Cartesian axes

     site n.     atom                  positions (alat units)
         1        Ba     tau(   1) = (   0.5000043   0.5000046   0.4999996  )
         2        Au     tau(   2) = (  -0.0000010  -0.0000008   0.0000001  )
         3        H      tau(   3) = (   0.4999989  -0.0000008   0.0000001  )
         4        H      tau(   4) = (  -0.0000010   0.5000004   0.0000001  )
         5        H      tau(   5) = (  -0.0000011  -0.0000008   0.5000001  )

     number of k points=  1458  Methfessel-Paxton smearing, width (Ry)=  0.0200

     Number of k-points >= 100: set verbosity='high' to print them.

     Dense  grid:   119177 G-vectors     FFT dimensions: (  64,  64,  64)

     Smooth grid:    42115 G-vectors     FFT dimensions: (  45,  45,  45)

     Estimated max dynamical RAM per process >     151.57 MB

     Estimated total dynamical RAM >     606.29 MB

     The potential is recalculated from file :
     ./out/_ph0/baauh3.q_3/baauh3.save/charge-density

     Starting wfcs are   17 atomic wfcs

     Band Structure Calculation
     Davidson diagonalization with overlap

     ethr =  4.17E-11,  avg # of iterations = 26.2

     total cpu time spent up to now is     1648.5 secs

     End of band structure calculation

     Number of k-points >= 100: set verbosity='high' to print the bands.

     the Fermi energy is    11.3493 ev

     Writing config to output data dir ./out/_ph0/baauh3.q_3/baauh3.save/ :
     XML data file

     BaAuH3 phonon + electron-phonon 4x4x4 q (RTSC A10 - SrAuH3 A-site Ba-varian

     bravais-lattice index     =            0
     lattice parameter (alat)  =       7.5797  a.u.
     unit-cell volume          =     435.4739 (a.u.)^3
     number of atoms/cell      =            5
     number of atomic types    =            3
     kinetic-energy cut-off    =      80.0000  Ry
     charge density cut-off    =     640.0000  Ry
     convergence threshold     =      1.0E-14
     beta                      =       0.7000
     number of iterations used =            4
     Exchange-correlation= PBE
                           (   1   4   3   4   0   0   0)


     celldm(1)=    7.57973  celldm(2)=    0.00000  celldm(3)=    0.00000
     celldm(4)=    0.00000  celldm(5)=    0.00000  celldm(6)=    0.00000

     crystal axes: (cart. coord. in units of alat)
               a(1) = (  1.0000  0.0000 -0.0000 )  
               a(2) = (  0.0000  1.0000 -0.0000 )  
               a(3) = ( -0.0000 -0.0000  1.0000 )  

     reciprocal axes: (cart. coord. in units 2 pi/alat)
               b(1) = (  1.0000 -0.0000  0.0000 )  
               b(2) = ( -0.0000  1.0000  0.0000 )  
               b(3) = (  0.0000  0.0000  1.0000 )  


     Atoms inside the unit cell: 

     Cartesian axes

     site n.  atom      mass           positions (alat units)
        1  Ba    137.3270   tau(    1) = (    0.50000    0.50000    0.50000  )
        2  Au    196.9670   tau(    2) = (   -0.00000   -0.00000    0.00000  )
        3  H       1.0080   tau(    3) = (    0.50000   -0.00000    0.00000  )
        4  H       1.0080   tau(    4) = (   -0.00000    0.50000    0.00000  )
        5  H       1.0080   tau(    5) = (   -0.00000   -0.00000    0.50000  )

     Computing dynamical matrix for 
                    q = (  -0.0000000  -0.0000000  -0.5000000 )

      9 Sym.Ops. (with q -> -q+G )


     G cutoff =  931.3815  ( 119177 G-vectors)     FFT grid: ( 64, 64, 64)
     G cutoff =  465.6908  (  42115 G-vectors)  smooth grid: ( 45, 45, 45)

     number of k points=  1458  Methfessel-Paxton smearing, width (Ry)=  0.0200

     PseudoPot. # 1 for Ba read from file:
     ./pseudo/Ba.pbe-spn-rrkjus_psl.1.0.0.UPF
     MD5 check sum: 9f28e7b3efa99dece8b35669272401d8
     Pseudo is Ultrasoft + core correction, Zval = 10.0
     Generated using &quot;atomic&quot; code by A. Dal Corso  v.6.2.2
     Using radial grid of 1251 points,  7 beta functions with: 
                l(1) =   0
                l(2) =   0
                l(3) =   0
                l(4) =   1
                l(5) =   1
                l(6) =   2
                l(7) =   2
     Q(r) pseudized with 0 coefficients 


     PseudoPot. # 2 for Au read from file:
     ./pseudo/Au.pbe-n-rrkjus_psl.1.0.0.UPF
     MD5 check sum: d7e77ba19504afed2c9b41c931dde4f0
     Pseudo is Ultrasoft + core correction, Zval = 11.0
     Generated using &quot;atomic&quot; code by A. Dal Corso  v.6.3
     Using radial grid of 1279 points,  6 beta functions with: 
                l(1) =   0
                l(2) =   0
                l(3) =   1
                l(4) =   1
                l(5) =   2
                l(6) =   2
     Q(r) pseudized with 0 coefficients 


     PseudoPot. # 3 for H  read from file:
     ./pseudo/H.pbe-rrkjus_psl.1.0.0.UPF
     MD5 check sum: 3f4114867bd07edc7f1424d066fc1888
     Pseudo is Ultrasoft, Zval =  1.0
     Generated using &quot;atomic&quot; code by A. Dal Corso  v.6.3MaX
     Using radial grid of  929 points,  2 beta functions with: 
                l(1) =   0
                l(2) =   0
     Q(r) pseudized with 0 coefficients 



     Atomic displacements:
     There are   15 irreducible representations

     Representation     1      1 modes -  To be done

     Representation     2      1 modes -  To be done

     Representation     3      1 modes -  To be done

     Representation     4      1 modes -  To be done

     Representation     5      1 modes -  To be done

     Representation     6      1 modes -  To be done

     Representation     7      1 modes -  To be done

     Representation     8      1 modes -  To be done

     Representation     9      1 modes -  To be done

     Representation    10      1 modes -  To be done

     Representation    11      1 modes -  To be done

     Representation    12      1 modes -  To be done

     Representation    13      1 modes -  To be done

     Representation    14      1 modes -  To be done

     Representation    15      1 modes -  To be done



     Alpha used in Ewald sum =   2.8000
     PHONON       :   1d11h23m CPU     18h18m WALL



     Representation #   1 mode #   1

     Self-consistent Calculation

      iter #   1 total cpu time : 65980.6 secs   av.it.:   4.1
      thresh= 1.000E-02 alpha_mix =  0.700 |ddv_scf|^2 =  1.144E-08

      iter #   2 total cpu time : 66189.9 secs   av.it.:  15.4
      thresh= 1.070E-05 alpha_mix =  0.700 |ddv_scf|^2 =  7.046E-10

      iter #   3 total cpu time : 66405.6 secs   av.it.:  16.3
      thresh= 2.654E-06 alpha_mix =  0.700 |ddv_scf|^2 =  8.322E-09

      iter #   4 total cpu time : 66593.5 secs   av.it.:  13.6
      thresh= 9.123E-06 alpha_mix =  0.700 |ddv_scf|^2 =  1.700E-09

      iter #   5 total cpu time : 66782.6 secs   av.it.:  13.8
      thresh= 4.123E-06 alpha_mix =  0.700 |ddv_scf|^2 =  1.151E-11

      iter #   6 total cpu time : 66973.7 secs   av.it.:  14.3
      thresh= 3.393E-07 alpha_mix =  0.700 |ddv_scf|^2 =  9.108E-15

     End of self-consistent calculation

     Convergence has been achieved 


     Representation #   2 mode #   2

     Self-consistent Calculation

      iter #   1 total cpu time : 67119.9 secs   av.it.:   9.0
      thresh= 1.000E-02 alpha_mix =  0.700 |ddv_scf|^2 =  6.563E-05

      iter #   2 total cpu time : 67340.3 secs   av.it.:  15.3
      thresh= 8.101E-04 alpha_mix =  0.700 |ddv_scf|^2 =  6.412E-04

      iter #   3 total cpu time : 67542.6 secs   av.it.:  14.0
      thresh= 2.532E-03 alpha_mix =  0.700 |ddv_scf|^2 =  1.849E-05

      iter #   4 total cpu time : 67736.4 secs   av.it.:  14.2
      thresh= 4.300E-04 alpha_mix =  0.700 |ddv_scf|^2 =  4.984E-06

      iter #   5 total cpu time : 67941.6 secs   av.it.:  14.7
      thresh= 2.232E-04 alpha_mix =  0.700 |ddv_scf|^2 =  1.998E-07

      iter #   6 total cpu time : 68143.3 secs   av.it.:  14.5
      thresh= 4.470E-05 alpha_mix =  0.700 |ddv_scf|^2 =  2.170E-08

      iter #   7 total cpu time : 68332.1 secs   av.it.:  13.4
      thresh= 1.473E-05 alpha_mix =  0.700 |ddv_scf|^2 =  6.479E-10

      iter #   8 total cpu time : 68522.3 secs   av.it.:  13.8
      thresh= 2.545E-06 alpha_mix =  0.700 |ddv_scf|^2 =  5.514E-11

      iter #   9 total cpu time : 68719.7 secs   av.it.:  14.3
      thresh= 7.426E-07 alpha_mix =  0.700 |ddv_scf|^2 =  3.548E-14

      iter #  10 total cpu time : 68937.1 secs   av.it.:  16.1
      thresh= 1.884E-08 alpha_mix =  0.700 |ddv_scf|^2 =  3.872E-14

      iter #  11 total cpu time : 69135.5 secs   av.it.:  14.3
      thresh= 1.968E-08 alpha_mix =  0.700 |ddv_scf|^2 =  1.381E-15

     End of self-consistent calculation

     Convergence has been achieved 


     Representation #   3 mode #   3

     Self-consistent Calculation

      iter #   1 total cpu time : 69231.1 secs   av.it.:   4.1
      thresh= 1.000E-02 alpha_mix =  0.700 |ddv_scf|^2 =  1.144E-08

      iter #   2 total cpu time : 69442.6 secs   av.it.:  15.4
      thresh= 1.070E-05 alpha_mix =  0.700 |ddv_scf|^2 =  7.063E-10

      iter #   3 total cpu time : 69659.6 secs   av.it.:  16.3
      thresh= 2.658E-06 alpha_mix =  0.700 |ddv_scf|^2 =  8.390E-09

      iter #   4 total cpu time : 69850.5 secs   av.it.:  13.6
      thresh= 9.160E-06 alpha_mix =  0.700 |ddv_scf|^2 =  1.695E-09

      iter #   5 total cpu time : 70045.2 secs   av.it.:  13.8
      thresh= 4.117E-06 alpha_mix =  0.700 |ddv_scf|^2 =  1.151E-11

      iter #   6 total cpu time : 70235.5 secs   av.it.:  14.3
      thresh= 3.393E-07 alpha_mix =  0.700 |ddv_scf|^2 =  9.063E-15

     End of self-consistent calculation

     Convergence has been achieved 


     Representation #   4 mode #   4

     Self-consistent Calculation

      iter #   1 total cpu time : 70344.5 secs   av.it.:   5.2
      thresh= 1.000E-02 alpha_mix =  0.700 |ddv_scf|^2 =  9.544E-07

      iter #   2 total cpu time : 70565.2 secs   av.it.:  15.1
      thresh= 9.769E-05 alpha_mix =  0.700 |ddv_scf|^2 =  1.014E-05

      iter #   3 total cpu time : 70761.6 secs   av.it.:  13.2
      thresh= 3.184E-04 alpha_mix =  0.700 |ddv_scf|^2 =  1.314E-08

      iter #   4 total cpu time : 70977.7 secs   av.it.:  15.7
      thresh= 1.146E-05 alpha_mix =  0.700 |ddv_scf|^2 =  8.748E-08

      iter #   5 total cpu time : 71173.9 secs   av.it.:  13.8
      thresh= 2.958E-05 alpha_mix =  0.700 |ddv_scf|^2 =  1.166E-09

      iter #   6 total cpu time : 71379.6 secs   av.it.:  14.7
      thresh= 3.415E-06 alpha_mix =  0.700 |ddv_scf|^2 =  3.642E-12

      iter #   7 total cpu time : 71585.1 secs   av.it.:  15.4
      thresh= 1.908E-07 alpha_mix =  0.700 |ddv_scf|^2 =  3.053E-14

      iter #   8 total cpu time : 71792.0 secs   av.it.:  15.1
      thresh= 1.747E-08 alpha_mix =  0.700 |ddv_scf|^2 =  3.604E-15

     End of self-consistent calculation

     Convergence has been achieved 


     Representation #   5 mode #   5

     Self-consistent Calculation

      iter #   1 total cpu time : 71898.1 secs   av.it.:   4.9
      thresh= 1.000E-02 alpha_mix =  0.700 |ddv_scf|^2 =  8.072E-07

      iter #   2 total cpu time : 72115.4 secs   av.it.:  15.2
      thresh= 8.984E-05 alpha_mix =  0.700 |ddv_scf|^2 =  4.473E-06

      iter #   3 total cpu time : 72310.1 secs   av.it.:  13.4
      thresh= 2.115E-04 alpha_mix =  0.700 |ddv_scf|^2 =  1.406E-10

      iter #   4 total cpu time : 72532.3 secs   av.it.:  15.8
      thresh= 1.186E-06 alpha_mix =  0.700 |ddv_scf|^2 =  2.929E-11

      iter #   5 total cpu time : 72735.6 secs   av.it.:  14.5
      thresh= 5.412E-07 alpha_mix =  0.700 |ddv_scf|^2 =  5.143E-13

      iter #   6 total cpu time : 72951.3 secs   av.it.:  15.3
      thresh= 7.172E-08 alpha_mix =  0.700 |ddv_scf|^2 =  1.119E-14

      iter #   7 total cpu time : 73163.2 secs   av.it.:  15.5
      thresh= 1.058E-08 alpha_mix =  0.700 |ddv_scf|^2 =  7.218E-16

     End of self-consistent calculation

     Convergence has been achieved 


     Representation #   6 mode #   6

     Self-consistent Calculation

      iter #   1 total cpu time : 73257.6 secs   av.it.:   4.1
      thresh= 1.000E-02 alpha_mix =  0.700 |ddv_scf|^2 =  1.268E-08

      iter #   2 total cpu time : 73469.9 secs   av.it.:  15.1
      thresh= 1.126E-05 alpha_mix =  0.700 |ddv_scf|^2 =  1.065E-09

      iter #   3 total cpu time : 73680.3 secs   av.it.:  15.2
      thresh= 3.263E-06 alpha_mix =  0.700 |ddv_scf|^2 =  3.186E-11

      iter #   4 total cpu time : 73891.8 secs   av.it.:  15.0
      thresh= 5.645E-07 alpha_mix =  0.700 |ddv_scf|^2 =  4.890E-13

      iter #   5 total cpu time : 74098.5 secs   av.it.:  15.0
      thresh= 6.993E-08 alpha_mix =  0.700 |ddv_scf|^2 =  3.249E-14

      iter #   6 total cpu time : 74300.7 secs   av.it.:  14.6
      thresh= 1.803E-08 alpha_mix =  0.700 |ddv_scf|^2 =  1.083E-15

     End of self-consistent calculation

     Convergence has been achieved 


     Representation #   7 mode #   7

     Self-consistent Calculation

      iter #   1 total cpu time : 74435.8 secs   av.it.:   8.1
      thresh= 1.000E-02 alpha_mix =  0.700 |ddv_scf|^2 =  1.869E-06
