
     Program PWSCF v.7.5 starts on  3Jun2026 at  2:11:57 

     This program is part of the open-source Quantum ESPRESSO suite
     for quantum simulation of materials; please cite
         "P. Giannozzi et al., J. Phys.:Condens. Matter 21 395502 (2009);
         "P. Giannozzi et al., J. Phys.:Condens. Matter 29 465901 (2017);
         "P. Giannozzi et al., J. Chem. Phys. 152 154105 (2020);
          URL http://www.quantum-espresso.org", 
     in publications or presentations arising from this work. More details at
     http://www.quantum-espresso.org/quote

     Parallel version (MPI & OpenMP), running on       8 processor cores
     Number of MPI processes:                 4
     Threads/MPI process:                     2

     MPI processes distributed on     1 nodes
     6212 MiB available memory on the printing compute node when the environment starts

     Reading input from scf.in

     Current dimensions of program PWSCF are:
     Max number of different atomic species (ntypx) = 10
     Max number of k-points (npk) =  40000
     Max angular momentum in pseudopotentials (lmaxx) =  4
     file Ba.pbe-spn-rrkjus_psl.1.0.0.UPF: wavefunction(s)  5S 6S renormalized
     Message from routine setup:
     using ibrav=0 with symmetry is DISCOURAGED, use correct ibrav instead

     K-points division:     npool     =       4
     Subspace diagonalization in iterative solution of the eigenvalue problem:
     a serial algorithm will be used


     G-vector sticks info
     --------------------
     sticks:   dense  smooth     PW     G-vecs:    dense   smooth      PW
     Sum        2933    1465    421               119177    42115    6619

     Using Slab Decomposition



     bravais-lattice index     =            0
     lattice parameter (alat)  =       7.5797  a.u.
     unit-cell volume          =     435.4739 (a.u.)^3
     number of atoms/cell      =            5
     number of atomic types    =            3
     number of electrons       =        24.00
     number of Kohn-Sham states=           16
     kinetic-energy cutoff     =      80.0000  Ry
     charge density cutoff     =     640.0000  Ry
     scf convergence threshold =      1.0E-12
     mixing beta               =       0.4000
     number of iterations used =            8  plain     mixing
     Exchange-correlation= PBE
                           (   1   4   3   4   0   0   0)

     celldm(1)=   7.579729  celldm(2)=   0.000000  celldm(3)=   0.000000
     celldm(4)=   0.000000  celldm(5)=   0.000000  celldm(6)=   0.000000

     crystal axes: (cart. coord. in units of alat)
               a(1) = (   1.000000   0.000000  -0.000000 )  
               a(2) = (   0.000000   1.000002  -0.000000 )  
               a(3) = (  -0.000000  -0.000000   1.000000 )  

     reciprocal axes: (cart. coord. in units 2 pi/alat)
               b(1) = (  1.000000 -0.000000  0.000000 )  
               b(2) = ( -0.000000  0.999998  0.000000 )  
               b(3) = (  0.000000  0.000000  1.000000 )  


     PseudoPot. # 1 for Ba read from file:
     ./pseudo/Ba.pbe-spn-rrkjus_psl.1.0.0.UPF
     MD5 check sum: 9f28e7b3efa99dece8b35669272401d8
     Pseudo is Ultrasoft + core correction, Zval = 10.0
     Generated using &quot;atomic&quot; code by A. Dal Corso  v.6.2.2
     Using radial grid of 1251 points,  7 beta functions with: 
                l(1) =   0
                l(2) =   0
                l(3) =   0
                l(4) =   1
                l(5) =   1
                l(6) =   2
                l(7) =   2
     Q(r) pseudized with 0 coefficients 


     PseudoPot. # 2 for Au read from file:
     ./pseudo/Au.pbe-n-rrkjus_psl.1.0.0.UPF
     MD5 check sum: d7e77ba19504afed2c9b41c931dde4f0
     Pseudo is Ultrasoft + core correction, Zval = 11.0
     Generated using &quot;atomic&quot; code by A. Dal Corso  v.6.3
     Using radial grid of 1279 points,  6 beta functions with: 
                l(1) =   0
                l(2) =   0
                l(3) =   1
                l(4) =   1
                l(5) =   2
                l(6) =   2
     Q(r) pseudized with 0 coefficients 


     PseudoPot. # 3 for H  read from file:
     ./pseudo/H.pbe-rrkjus_psl.1.0.0.UPF
     MD5 check sum: 3f4114867bd07edc7f1424d066fc1888
     Pseudo is Ultrasoft, Zval =  1.0
     Generated using &quot;atomic&quot; code by A. Dal Corso  v.6.3MaX
     Using radial grid of  929 points,  2 beta functions with: 
                l(1) =   0
                l(2) =   0
     Q(r) pseudized with 0 coefficients 


     atomic species   valence    mass     pseudopotential
     Ba               10.00   137.32700     Ba( 1.00)
     Au               11.00   196.96700     Au( 1.00)
     H                 1.00     1.00800     H ( 1.00)

     16 Sym. Ops., with inversion, found



   Cartesian axes

     site n.     atom                  positions (alat units)
         1        Ba     tau(   1) = (   0.5000043   0.5000046   0.4999996  )
         2        Au     tau(   2) = (  -0.0000010  -0.0000008   0.0000001  )
         3        H      tau(   3) = (   0.4999989  -0.0000008   0.0000001  )
         4        H      tau(   4) = (  -0.0000010   0.5000004   0.0000001  )
         5        H      tau(   5) = (  -0.0000011  -0.0000008   0.5000001  )

     number of k points=   405  Methfessel-Paxton smearing, width (Ry)=  0.0200

     Number of k-points >= 100: set verbosity='high' to print them.

     Dense  grid:   119177 G-vectors     FFT dimensions: (  64,  64,  64)

     Smooth grid:    42115 G-vectors     FFT dimensions: (  45,  45,  45)

     Estimated max dynamical RAM per process >     318.83 MB

     Estimated total dynamical RAM >       1.16 GB

     Initial potential from superposition of free atoms

     starting charge      23.9829, renormalised to      24.0000
     Starting wfcs are   17 randomized atomic wfcs

     total cpu time spent up to now is        7.6 secs

     per-process dynamical memory:   216.2 Mb

     Self-consistent Calculation

     iteration #  1     ecut=    80.00 Ry     beta= 0.40
     Davidson diagonalization with overlap
     ethr =  1.00E-02,  avg # of iterations =  7.9

     total cpu time spent up to now is       53.0 secs

     total energy              =    -151.63575419 Ry
     estimated scf accuracy    <       0.38077921 Ry

     iteration #  2     ecut=    80.00 Ry     beta= 0.40
     Davidson diagonalization with overlap
     ethr =  1.59E-03,  avg # of iterations =  2.4

     total cpu time spent up to now is       78.9 secs

     total energy              =    -151.73277450 Ry
     estimated scf accuracy    <       0.03185435 Ry

     iteration #  3     ecut=    80.00 Ry     beta= 0.40
     Davidson diagonalization with overlap
     ethr =  1.33E-04,  avg # of iterations =  7.4

     total cpu time spent up to now is      126.8 secs

     total energy              =    -151.73783599 Ry
     estimated scf accuracy    <       0.00330321 Ry

     iteration #  4     ecut=    80.00 Ry     beta= 0.40
     Davidson diagonalization with overlap
     c_bands:  1 eigenvalues not converged
     ethr =  1.38E-05,  avg # of iterations =  5.8

     total cpu time spent up to now is      169.1 secs

     total energy              =    -151.73871141 Ry
     estimated scf accuracy    <       0.00050406 Ry

     iteration #  5     ecut=    80.00 Ry     beta= 0.40
     Davidson diagonalization with overlap
     ethr =  2.10E-06,  avg # of iterations =  5.2

     total cpu time spent up to now is      210.2 secs

     total energy              =    -151.73884967 Ry
     estimated scf accuracy    <       0.00018302 Ry

     iteration #  6     ecut=    80.00 Ry     beta= 0.40
     Davidson diagonalization with overlap
     ethr =  7.63E-07,  avg # of iterations =  2.0

     total cpu time spent up to now is      231.7 secs

     total energy              =    -151.73889310 Ry
     estimated scf accuracy    <       0.00000369 Ry

     iteration #  7     ecut=    80.00 Ry     beta= 0.40
     Davidson diagonalization with overlap
     ethr =  1.54E-08,  avg # of iterations =  6.5

     total cpu time spent up to now is      276.8 secs

     total energy              =    -151.73889317 Ry
     estimated scf accuracy    <       0.00002188 Ry

     iteration #  8     ecut=    80.00 Ry     beta= 0.40
     Davidson diagonalization with overlap
     ethr =  1.54E-08,  avg # of iterations =  3.6

     total cpu time spent up to now is      304.4 secs

     total energy              =    -151.73889720 Ry
     estimated scf accuracy    <       0.00000019 Ry

     iteration #  9     ecut=    80.00 Ry     beta= 0.40
     Davidson diagonalization with overlap
     c_bands:  1 eigenvalues not converged
     c_bands:  1 eigenvalues not converged
     ethr =  7.95E-10,  avg # of iterations =  5.9

     total cpu time spent up to now is      344.9 secs

     total energy              =    -151.73889717 Ry
     estimated scf accuracy    <       0.00000174 Ry

     iteration # 10     ecut=    80.00 Ry     beta= 0.40
     Davidson diagonalization with overlap
     ethr =  7.95E-10,  avg # of iterations =  3.8

     total cpu time spent up to now is      373.3 secs

     total energy              =    -151.73889729 Ry
     estimated scf accuracy    <       0.00000012 Ry

     iteration # 11     ecut=    80.00 Ry     beta= 0.40
     Davidson diagonalization with overlap
     ethr =  5.04E-10,  avg # of iterations =  3.4

     total cpu time spent up to now is      400.3 secs

     total energy              =    -151.73889734 Ry
     estimated scf accuracy    <       0.00000001 Ry

     iteration # 12     ecut=    80.00 Ry     beta= 0.40
     Davidson diagonalization with overlap
     c_bands:  1 eigenvalues not converged
     ethr =  5.10E-11,  avg # of iterations =  3.5

     total cpu time spent up to now is      428.3 secs

     total energy              =    -151.73889734 Ry
     estimated scf accuracy    <          7.6E-10 Ry

     iteration # 13     ecut=    80.00 Ry     beta= 0.40
     Davidson diagonalization with overlap
     ethr =  3.15E-12,  avg # of iterations =  4.3

     total cpu time spent up to now is      459.5 secs

     total energy              =    -151.73889734 Ry
     estimated scf accuracy    <          3.7E-10 Ry

     iteration # 14     ecut=    80.00 Ry     beta= 0.40
     Davidson diagonalization with overlap
     ethr =  1.56E-12,  avg # of iterations =  1.1

     total cpu time spent up to now is      475.6 secs

     total energy              =    -151.73889734 Ry
     estimated scf accuracy    <          3.7E-10 Ry

     iteration # 15     ecut=    80.00 Ry     beta= 0.40
     Davidson diagonalization with overlap
     ethr =  1.54E-12,  avg # of iterations =  2.1

     total cpu time spent up to now is      496.3 secs

     total energy              =    -151.73889734 Ry
     estimated scf accuracy    <          2.3E-11 Ry

     iteration # 16     ecut=    80.00 Ry     beta= 0.40
     Davidson diagonalization with overlap
     ethr =  1.00E-13,  avg # of iterations =  4.7

     total cpu time spent up to now is      529.0 secs

     total energy              =    -151.73889734 Ry
     estimated scf accuracy    <          9.7E-12 Ry

     iteration # 17     ecut=    80.00 Ry     beta= 0.40
     Davidson diagonalization with overlap
     ethr =  1.00E-13,  avg # of iterations =  1.0

     total cpu time spent up to now is      545.1 secs

     total energy              =    -151.73889734 Ry
     estimated scf accuracy    <          1.2E-12 Ry

     iteration # 18     ecut=    80.00 Ry     beta= 0.40
     Davidson diagonalization with overlap
     ethr =  1.00E-13,  avg # of iterations =  1.0

     total cpu time spent up to now is      561.4 secs

     total energy              =    -151.73889734 Ry
     estimated scf accuracy    <          1.3E-12 Ry

     iteration # 19     ecut=    80.00 Ry     beta= 0.40
     Davidson diagonalization with overlap
     ethr =  1.00E-13,  avg # of iterations =  1.0

     total cpu time spent up to now is      577.4 secs

     End of self-consistent calculation

     Number of k-points >= 100: set verbosity='high' to print the bands.

     the Fermi energy is    11.3493 ev

!    total energy              =    -151.73889734 Ry
     estimated scf accuracy    <          8.4E-14 Ry
     smearing contrib. (-TS)   =      -0.00016309 Ry
     internal energy E=F+TS    =    -151.73873426 Ry

     The total energy is F=E-TS. E is the sum of the following terms:
     one-electron contribution =      -2.53543551 Ry
     hartree contribution      =      18.35211608 Ry
     xc contribution           =     -54.52264567 Ry
     ewald contribution        =    -113.03276915 Ry

     convergence has been achieved in  19 iterations

     Forces acting on atoms (cartesian axes, Ry/au):

     atom    1 type  1   force =     0.00000000    0.00000000    0.00000000
     atom    2 type  2   force =     0.00000000    0.00000000    0.00000000
     atom    3 type  3   force =     0.00000000    0.00000000    0.00000000
     atom    4 type  3   force =     0.00000000    0.00000000    0.00000000
     atom    5 type  3   force =     0.00000000    0.00000000    0.00000000

     Total force =     0.000000     Total SCF correction =     0.000000


     Computing stress (Cartesian axis) and pressure

          total   stress  (Ry/bohr**3)                   (kbar)     P=       50.06
   0.00034028  -0.00000000   0.00000000           50.06       -0.00        0.00
  -0.00000000   0.00034027   0.00000000           -0.00       50.06        0.00
   0.00000000   0.00000000   0.00034028            0.00        0.00       50.06


     Writing all to output data dir ./out/baauh3.save/ :
     XML data file, charge density, pseudopotentials, collected wavefunctions

     init_run     :     13.12s CPU      7.54s WALL (       1 calls)
     electrons    :   1013.71s CPU    569.76s WALL (       1 calls)
     forces       :      4.15s CPU      2.19s WALL (       1 calls)
     stress       :      6.08s CPU      3.46s WALL (       1 calls)

     Called by init_run:
     wfcinit      :     11.37s CPU      5.98s WALL (       1 calls)
     potinit      :      0.24s CPU      0.19s WALL (       1 calls)
     hinit0       :      1.08s CPU      1.03s WALL (       1 calls)

     Called by electrons:
     c_bands      :    904.77s CPU    504.40s WALL (      19 calls)
     sum_band     :    103.91s CPU     62.01s WALL (      19 calls)
     v_of_rho     :      1.81s CPU      1.03s WALL (      20 calls)
     newd         :      3.10s CPU      2.32s WALL (      20 calls)
     mix_rho      :      0.34s CPU      0.21s WALL (      19 calls)

     Called by c_bands:
     init_us_2    :      8.65s CPU      4.97s WALL (    4182 calls)
     cegterg      :    670.96s CPU    352.11s WALL (    1938 calls)

     Called by *egterg:
     cdiaghg      :      2.46s CPU      1.43s WALL (    9308 calls)
     h_psi        :    437.71s CPU    235.38s WALL (    9410 calls)
     s_psi        :     51.43s CPU     26.78s WALL (    9410 calls)
     g_psi        :      0.97s CPU      0.96s WALL (    7370 calls)

     Called by h_psi:
     h_psi:calbec :     38.83s CPU     19.47s WALL (    9410 calls)
     vloc_psi     :    375.77s CPU    203.27s WALL (    9410 calls)
                                        0.00s GPU  (    9410 calls)
     add_vuspsi   :      2.71s CPU      2.36s WALL (    9410 calls)

     General routines
     calbec       :     47.32s CPU     23.84s WALL (   13082 calls)
     fft          :      1.23s CPU      0.82s WALL (     283 calls)
     ffts         :      0.13s CPU      0.11s WALL (      39 calls)
     fftw         :    387.69s CPU    214.03s WALL (  211828 calls)
     interpolate  :      0.17s CPU      0.12s WALL (      20 calls)

     Parallel routines

     PWSCF        :  17m17.49s CPU   9m43.38s WALL


   This run was terminated on:   2:21:40   3Jun2026            

=------------------------------------------------------------------------------=
   JOB DONE.
=------------------------------------------------------------------------------=
