
     Program PHONON v.7.5 starts on  5Jun2026 at 13:57:54 

     This program is part of the open-source Quantum ESPRESSO suite
     for quantum simulation of materials; please cite
         "P. Giannozzi et al., J. Phys.:Condens. Matter 21 395502 (2009);
         "P. Giannozzi et al., J. Phys.:Condens. Matter 29 465901 (2017);
         "P. Giannozzi et al., J. Chem. Phys. 152 154105 (2020);
          URL http://www.quantum-espresso.org", 
     in publications or presentations arising from this work. More details at
     http://www.quantum-espresso.org/quote

     Parallel version (MPI & OpenMP), running on      32 processor cores
     Number of MPI processes:                32
     Threads/MPI process:                     1

     MPI processes distributed on     1 nodes
     101340 MiB available memory on the printing compute node when the environment starts

     Reading input from ph.in
     Run is not recoverable starting from scratch

     Reading xml data from directory:

     ./out/li2mgh16.save/

     K-points division:     npool     =       4
     R & G space division:  proc/nbgrp/npool/nimage =       8
     Subspace diagonalization in iterative solution of the eigenvalue problem:
     a serial algorithm will be used

     file Mg.pbe-spnl-rrkjus_psl.1.0.0.UPF: wavefunction(s)  2P renormalized

     IMPORTANT: XC functional enforced from input :
     Exchange-correlation= PBE
                           (   1   4   3   4   0   0   0)
     Any further DFT definition will be discarded
     Please, verify this is what you really want


     Parallelization info
     --------------------
     sticks:   dense  smooth     PW     G-vecs:    dense   smooth      PW
     Min         332     166     49                11281     3993     650
     Max         334     167     50                11282     3996     652
     Sum        2665    1333    397                90249    31951    5209

     Using Slab Decomposition


     Check: negative core charge=   -0.000009
     Reading collected, re-writing distributed wavefunctions in ./out/


     Dynamical matrices for ( 2, 2, 2)  uniform grid of q-points
     (   8 q-points):
       N         xq(1)         xq(2)         xq(3) 
       1   0.000000000   0.000000000   0.000000000
       2  -0.353553399  -0.353553386   0.353553387
       3  -0.353553390   0.353553387  -0.353553377
       4  -0.707106789   0.000000001   0.000000010
       5   0.353553400  -0.353553394  -0.353553393
       6   0.000000001  -0.707106780  -0.000000006
       7   0.000000010  -0.000000007  -0.707106770
       8  -0.353553389  -0.353553393  -0.353553383

     Number and degeneracy of irreps per q-point
       N         xq(1)         xq(2)         xq(3)   N irreps
       1   0.000000000   0.000000000   0.000000000     114
     No degeneracy
       2  -0.353553399  -0.353553386   0.353553387     114
     No degeneracy
       3  -0.353553390   0.353553387  -0.353553377     114
     No degeneracy
       4  -0.707106789   0.000000001   0.000000010     114
     No degeneracy
       5   0.353553400  -0.353553394  -0.353553393     114
     No degeneracy
       6   0.000000001  -0.707106780  -0.000000006     114
     No degeneracy
       7   0.000000010  -0.000000007  -0.707106770     114
     No degeneracy
       8  -0.353553389  -0.353553393  -0.353553383     114
     No degeneracy

     Saving dvscf to file. Distribute only q points, not irreducible representations.

     Calculation of q =    0.0000000   0.0000000   0.0000000

     Li2MgH16 el-ph 2x2x2 q (RTSC clathrate electron_phonon=simple)             

     bravais-lattice index     =            0
     lattice parameter (alat)  =       8.9619  a.u.
     unit-cell volume          =     508.9560 (a.u.)^3
     number of atoms/cell      =           38
     number of atomic types    =            3
     kinetic-energy cut-off    =      60.0000  Ry
     charge density cut-off    =     480.0000  Ry
     convergence threshold     =      1.0E-14
     beta                      =       0.7000
     number of iterations used =            4
     Exchange-correlation= PBE
                           (   1   4   3   4   0   0   0)


     celldm(1)=    8.96187  celldm(2)=    0.00000  celldm(3)=    0.00000
     celldm(4)=    0.00000  celldm(5)=    0.00000  celldm(6)=    0.00000

     crystal axes: (cart. coord. in units of alat)
               a(1) = (  0.0000  0.7071  0.7071 )  
               a(2) = (  0.7071 -0.0000  0.7071 )  
               a(3) = (  0.7071  0.7071  0.0000 )  

     reciprocal axes: (cart. coord. in units 2 pi/alat)
               b(1) = ( -0.7071  0.7071  0.7071 )  
               b(2) = (  0.7071 -0.7071  0.7071 )  
               b(3) = (  0.7071  0.7071 -0.7071 )  


     Atoms inside the unit cell: 

     Cartesian axes

     site n.  atom      mass           positions (alat units)
        1  Li      6.9410   tau(    1) = (    0.53033    0.88388    0.53033  )
        2  Li      6.9410   tau(    2) = (    0.53033    0.53033    0.88388  )
        3  Li      6.9410   tau(    3) = (    0.88388    0.53033    0.53033  )
        4  Li      6.9410   tau(    4) = (    0.88388    0.88388    0.88388  )
        5  Mg     24.3050   tau(    5) = (   -0.00000   -0.00000    0.00000  )
        6  Mg     24.3050   tau(    6) = (    0.35355    0.35355    0.35355  )
        7  H       1.0080   tau(    7) = (    0.94400    0.94400    1.17732  )
        8  H       1.0080   tau(    8) = (    1.17732    0.94400    0.94400  )
        9  H       1.0080   tau(    9) = (    0.94400    1.17732    0.94400  )
       10  H       1.0080   tau(   10) = (    0.82377    0.82377    0.59044  )
       11  H       1.0080   tau(   11) = (    0.82377    0.59044    0.82377  )
       12  H       1.0080   tau(   12) = (    0.59044    0.82377    0.82377  )
       13  H       1.0080   tau(   13) = (    1.17732    1.17732    1.17732  )
       14  H       1.0080   tau(   14) = (    0.59044    0.59044    0.59044  )
       15  H       1.0080   tau(   15) = (    0.61609    1.05463    0.79812  )
       16  H       1.0080   tau(   16) = (    0.79812    0.61609    1.05463  )
       17  H       1.0080   tau(   17) = (    1.05463    0.79812    0.61609  )
       18  H       1.0080   tau(   18) = (    0.71314    1.15168    0.96965  )
       19  H       1.0080   tau(   19) = (    1.15168    0.96965    0.71314  )
       20  H       1.0080   tau(   20) = (    0.96965    0.71314    1.15168  )
       21  H       1.0080   tau(   21) = (    1.15168    0.71314    0.96965  )
       22  H       1.0080   tau(   22) = (    0.96965    1.15168    0.71314  )
       23  H       1.0080   tau(   23) = (    0.71314    0.96965    1.15168  )
       24  H       1.0080   tau(   24) = (    1.05463    0.61609    0.79812  )
       25  H       1.0080   tau(   25) = (    0.61609    0.79812    1.05463  )
       26  H       1.0080   tau(   26) = (    0.79812    1.05463    0.61609  )
       27  H       1.0080   tau(   27) = (    0.79812    0.35959    0.79812  )
       28  H       1.0080   tau(   28) = (    0.35959    0.61609    0.61609  )
       29  H       1.0080   tau(   29) = (    1.40818    1.15168    1.15168  )
       30  H       1.0080   tau(   30) = (    0.96965    0.96965    1.40818  )
       31  H       1.0080   tau(   31) = (    0.96965    1.40818    0.96965  )
       32  H       1.0080   tau(   32) = (    0.79812    0.79812    0.35959  )
       33  H       1.0080   tau(   33) = (    0.61609    0.35959    0.61609  )
       34  H       1.0080   tau(   34) = (    1.40818    0.96965    0.96965  )
       35  H       1.0080   tau(   35) = (    1.15168    1.40818    1.15168  )
       36  H       1.0080   tau(   36) = (    0.35959    0.79812    0.79812  )
       37  H       1.0080   tau(   37) = (    0.61609    0.61609    0.35959  )
       38  H       1.0080   tau(   38) = (    1.15168    1.15168    1.40818  )

     Computing dynamical matrix for 
                    q = (   0.0000000   0.0000000   0.0000000 )

      2 Sym.Ops. (with q -> -q+G )


     G cutoff =  976.5137  (  11282 G-vectors)     FFT grid: ( 64, 64, 64)
     G cutoff =  488.2568  (   3994 G-vectors)  smooth grid: ( 45, 45, 45)

     number of k points=   260  Methfessel-Paxton smearing, width (Ry)=  0.0200

     PseudoPot. # 1 for Li read from file:
     ./pseudo/Li.pbe-s-rrkjus_psl.1.0.0.UPF
     MD5 check sum: a07f98b50cb2323aa4dab8f6b8331f41
     Pseudo is Ultrasoft, Zval =  3.0
     Generated using &quot;atomic&quot; code by A. Dal Corso  v.6.3MaX
     Using radial grid of 1017 points,  4 beta functions with: 
                l(1) =   0
                l(2) =   0
                l(3) =   1
                l(4) =   1
     Q(r) pseudized with 0 coefficients 


     PseudoPot. # 2 for Mg read from file:
     ./pseudo/Mg.pbe-spnl-rrkjus_psl.1.0.0.UPF
     MD5 check sum: 7bbac6cb09d08803af897bb2209b4f8d
     Pseudo is Ultrasoft + core correction, Zval = 10.0
     Generated using &quot;atomic&quot; code by A. Dal Corso  v.6.3
     Using radial grid of 1129 points,  4 beta functions with: 
                l(1) =   0
                l(2) =   0
                l(3) =   1
                l(4) =   1
     Q(r) pseudized with 0 coefficients 


     PseudoPot. # 3 for H  read from file:
     ./pseudo/H.pbe-rrkjus_psl.1.0.0.UPF
     MD5 check sum: af0d83a6ef17603a7b7645159cc407bf
     Pseudo is Ultrasoft, Zval =  1.0
     Generated using &quot;atomic&quot; code by A. Dal Corso  v.6.3MaX
     Using radial grid of  929 points,  2 beta functions with: 
                l(1) =   0
                l(2) =   0
     Q(r) pseudized with 0 coefficients 


     Mode symmetry, C_1 (1)     point group:


     Atomic displacements:
     There are  114 irreducible representations

     Representation     1      1 modes -  To be done

     Representation     2      1 modes -  To be done

     Representation     3      1 modes -  To be done

     Representation     4      1 modes -  To be done

     Representation     5      1 modes -  To be done

     Representation     6      1 modes -  To be done

     Representation     7      1 modes -  To be done

     Representation     8      1 modes -  To be done

     Representation     9      1 modes -  To be done

     Representation    10      1 modes -  To be done

     Representation    11      1 modes -  To be done

     Representation    12      1 modes -  To be done

     Representation    13      1 modes -  To be done

     Representation    14      1 modes -  To be done

     Representation    15      1 modes -  To be done

     Representation    16      1 modes -  To be done

     Representation    17      1 modes -  To be done

     Representation    18      1 modes -  To be done

     Representation    19      1 modes -  To be done

     Representation    20      1 modes -  To be done

     Representation    21      1 modes -  To be done

     Representation    22      1 modes -  To be done

     Representation    23      1 modes -  To be done

     Representation    24      1 modes -  To be done

     Representation    25      1 modes -  To be done

     Representation    26      1 modes -  To be done

     Representation    27      1 modes -  To be done

     Representation    28      1 modes -  To be done

     Representation    29      1 modes -  To be done

     Representation    30      1 modes -  To be done

     Representation    31      1 modes -  To be done

     Representation    32      1 modes -  To be done

     Representation    33      1 modes -  To be done

     Representation    34      1 modes -  To be done

     Representation    35      1 modes -  To be done

     Representation    36      1 modes -  To be done

     Representation    37      1 modes -  To be done

     Representation    38      1 modes -  To be done

     Representation    39      1 modes -  To be done

     Representation    40      1 modes -  To be done

     Representation    41      1 modes -  To be done

     Representation    42      1 modes -  To be done

     Representation    43      1 modes -  To be done

     Representation    44      1 modes -  To be done

     Representation    45      1 modes -  To be done

     Representation    46      1 modes -  To be done

     Representation    47      1 modes -  To be done

     Representation    48      1 modes -  To be done

     Representation    49      1 modes -  To be done

     Representation    50      1 modes -  To be done

     Representation    51      1 modes -  To be done

     Representation    52      1 modes -  To be done

     Representation    53      1 modes -  To be done

     Representation    54      1 modes -  To be done

     Representation    55      1 modes -  To be done

     Representation    56      1 modes -  To be done

     Representation    57      1 modes -  To be done

     Representation    58      1 modes -  To be done

     Representation    59      1 modes -  To be done

     Representation    60      1 modes -  To be done

     Representation    61      1 modes -  To be done

     Representation    62      1 modes -  To be done

     Representation    63      1 modes -  To be done

     Representation    64      1 modes -  To be done

     Representation    65      1 modes -  To be done

     Representation    66      1 modes -  To be done

     Representation    67      1 modes -  To be done

     Representation    68      1 modes -  To be done

     Representation    69      1 modes -  To be done

     Representation    70      1 modes -  To be done

     Representation    71      1 modes -  To be done

     Representation    72      1 modes -  To be done

     Representation    73      1 modes -  To be done

     Representation    74      1 modes -  To be done

     Representation    75      1 modes -  To be done

     Representation    76      1 modes -  To be done

     Representation    77      1 modes -  To be done

     Representation    78      1 modes -  To be done

     Representation    79      1 modes -  To be done

     Representation    80      1 modes -  To be done

     Representation    81      1 modes -  To be done

     Representation    82      1 modes -  To be done

     Representation    83      1 modes -  To be done

     Representation    84      1 modes -  To be done

     Representation    85      1 modes -  To be done

     Representation    86      1 modes -  To be done

     Representation    87      1 modes -  To be done

     Representation    88      1 modes -  To be done

     Representation    89      1 modes -  To be done

     Representation    90      1 modes -  To be done

     Representation    91      1 modes -  To be done

     Representation    92      1 modes -  To be done

     Representation    93      1 modes -  To be done

     Representation    94      1 modes -  To be done

     Representation    95      1 modes -  To be done

     Representation    96      1 modes -  To be done

     Representation    97      1 modes -  To be done

     Representation    98      1 modes -  To be done

     Representation    99      1 modes -  To be done

     Representation   100      1 modes -  To be done

     Representation   101      1 modes -  To be done

     Representation   102      1 modes -  To be done

     Representation   103      1 modes -  To be done

     Representation   104      1 modes -  To be done

     Representation   105      1 modes -  To be done

     Representation   106      1 modes -  To be done

     Representation   107      1 modes -  To be done

     Representation   108      1 modes -  To be done

     Representation   109      1 modes -  To be done

     Representation   110      1 modes -  To be done

     Representation   111      1 modes -  To be done

     Representation   112      1 modes -  To be done

     Representation   113      1 modes -  To be done

     Representation   114      1 modes -  To be done



     Alpha used in Ewald sum =   2.8000
     PHONON       :   1m28.64s CPU   1m38.70s WALL



     Representation #   1 mode #   1

     Self-consistent Calculation

     Pert. #  1: Fermi energy shift (Ry) =     8.9260E-08     0.0000E+00

      iter #   1 total cpu time :   108.9 secs   av.it.:   5.6
      thresh= 1.000E-02 alpha_mix =  0.700 |ddv_scf|^2 =  4.998E-07

     Pert. #  1: Fermi energy shift (Ry) =     3.4072E-08     0.0000E+00

      iter #   2 total cpu time :   129.2 secs   av.it.:  16.9
      thresh= 7.070E-05 alpha_mix =  0.700 |ddv_scf|^2 =  3.210E-07

     Pert. #  1: Fermi energy shift (Ry) =    -4.7816E-09     0.0000E+00

      iter #   3 total cpu time :   148.8 secs   av.it.:  16.2
      thresh= 5.666E-05 alpha_mix =  0.700 |ddv_scf|^2 =  2.972E-09

     Pert. #  1: Fermi energy shift (Ry) =    -1.2454E-08     0.0000E+00

      iter #   4 total cpu time :   169.2 secs   av.it.:  17.0
      thresh= 5.452E-06 alpha_mix =  0.700 |ddv_scf|^2 =  3.126E-10

     Pert. #  1: Fermi energy shift (Ry) =    -2.4429E-09     0.0000E+00

      iter #   5 total cpu time :   189.0 secs   av.it.:  16.4
      thresh= 1.768E-06 alpha_mix =  0.700 |ddv_scf|^2 =  9.853E-12

     Pert. #  1: Fermi energy shift (Ry) =    -7.1463E-10     0.0000E+00

      iter #   6 total cpu time :   208.7 secs   av.it.:  16.4
      thresh= 3.139E-07 alpha_mix =  0.700 |ddv_scf|^2 =  8.026E-13

     Pert. #  1: Fermi energy shift (Ry) =    -3.9220E-10     0.0000E+00

      iter #   7 total cpu time :   228.7 secs   av.it.:  16.7
      thresh= 8.959E-08 alpha_mix =  0.700 |ddv_scf|^2 =  9.543E-14

     Pert. #  1: Fermi energy shift (Ry) =    -2.1068E-10     0.0000E+00

      iter #   8 total cpu time :   248.8 secs   av.it.:  16.7
      thresh= 3.089E-08 alpha_mix =  0.700 |ddv_scf|^2 =  1.082E-14

     Pert. #  1: Fermi energy shift (Ry) =    -2.2063E-10     0.0000E+00

      iter #   9 total cpu time :   268.6 secs   av.it.:  16.4
      thresh= 1.040E-08 alpha_mix =  0.700 |ddv_scf|^2 =  3.778E-15

     End of self-consistent calculation

     Convergence has been achieved 


     Representation #   2 mode #   2

     Self-consistent Calculation

     Pert. #  1: Fermi energy shift (Ry) =     2.1566E-07     2.1176E-22

      iter #   1 total cpu time :   281.3 secs   av.it.:   5.6
      thresh= 1.000E-02 alpha_mix =  0.700 |ddv_scf|^2 =  4.999E-07

     Pert. #  1: Fermi energy shift (Ry) =    -6.3292E-08    -2.6470E-23

      iter #   2 total cpu time :   301.5 secs   av.it.:  16.9
      thresh= 7.070E-05 alpha_mix =  0.700 |ddv_scf|^2 =  3.210E-07

     Pert. #  1: Fermi energy shift (Ry) =    -3.1980E-08     1.6544E-24

      iter #   3 total cpu time :   321.1 secs   av.it.:  16.2
      thresh= 5.666E-05 alpha_mix =  0.700 |ddv_scf|^2 =  2.972E-09

     Pert. #  1: Fermi energy shift (Ry) =    -1.0609E-08    -1.0340E-25

      iter #   4 total cpu time :   341.5 secs   av.it.:  17.0
      thresh= 5.452E-06 alpha_mix =  0.700 |ddv_scf|^2 =  3.126E-10

     Pert. #  1: Fermi energy shift (Ry) =    -3.8890E-09    -2.5849E-26

      iter #   5 total cpu time :   361.3 secs   av.it.:  16.4
      thresh= 1.768E-06 alpha_mix =  0.700 |ddv_scf|^2 =  9.853E-12

     Pert. #  1: Fermi energy shift (Ry) =    -4.6464E-10     5.1699E-26

      iter #   6 total cpu time :   381.1 secs   av.it.:  16.4
      thresh= 3.139E-07 alpha_mix =  0.700 |ddv_scf|^2 =  8.025E-13

     Pert. #  1: Fermi energy shift (Ry) =     8.1909E-12     6.4623E-27

      iter #   7 total cpu time :   401.0 secs   av.it.:  16.7
      thresh= 8.958E-08 alpha_mix =  0.700 |ddv_scf|^2 =  9.542E-14

     Pert. #  1: Fermi energy shift (Ry) =     1.1843E-10     1.6156E-27

      iter #   8 total cpu time :   421.0 secs   av.it.:  16.7
      thresh= 3.089E-08 alpha_mix =  0.700 |ddv_scf|^2 =  1.082E-14

     Pert. #  1: Fermi energy shift (Ry) =     1.0809E-10    -1.6156E-27

      iter #   9 total cpu time :   440.6 secs   av.it.:  16.4
      thresh= 1.040E-08 alpha_mix =  0.700 |ddv_scf|^2 =  3.777E-15

     End of self-consistent calculation

     Convergence has been achieved 


     Representation #   3 mode #   3

     Self-consistent Calculation

     Pert. #  1: Fermi energy shift (Ry) =     1.7062E-07     4.2352E-22

      iter #   1 total cpu time :   453.3 secs   av.it.:   5.6
      thresh= 1.000E-02 alpha_mix =  0.700 |ddv_scf|^2 =  4.998E-07

     Pert. #  1: Fermi energy shift (Ry) =    -2.3759E-08    -6.6174E-24

      iter #   2 total cpu time :   473.6 secs   av.it.:  16.9
      thresh= 7.070E-05 alpha_mix =  0.700 |ddv_scf|^2 =  3.210E-07

     Pert. #  1: Fermi energy shift (Ry) =    -3.4019E-09     3.3087E-24

      iter #   3 total cpu time :   493.1 secs   av.it.:  16.2
      thresh= 5.666E-05 alpha_mix =  0.700 |ddv_scf|^2 =  2.972E-09

     Pert. #  1: Fermi energy shift (Ry) =     1.6142E-09    -4.1359E-25

      iter #   4 total cpu time :   513.5 secs   av.it.:  17.0
      thresh= 5.452E-06 alpha_mix =  0.700 |ddv_scf|^2 =  3.127E-10

     Pert. #  1: Fermi energy shift (Ry) =    -4.1708E-10     1.0340E-25

      iter #   5 total cpu time :   533.3 secs   av.it.:  16.4
      thresh= 1.768E-06 alpha_mix =  0.700 |ddv_scf|^2 =  9.851E-12

     Pert. #  1: Fermi energy shift (Ry) =     2.2452E-10     2.5849E-26

      iter #   6 total cpu time :   553.1 secs   av.it.:  16.4
      thresh= 3.139E-07 alpha_mix =  0.700 |ddv_scf|^2 =  8.024E-13

     Pert. #  1: Fermi energy shift (Ry) =     3.9660E-10     6.4623E-27

      iter #   7 total cpu time :   573.0 secs   av.it.:  16.7
      thresh= 8.958E-08 alpha_mix =  0.700 |ddv_scf|^2 =  9.542E-14

     Pert. #  1: Fermi energy shift (Ry) =     3.5792E-10     8.0779E-28

      iter #   8 total cpu time :   593.0 secs   av.it.:  16.7
      thresh= 3.089E-08 alpha_mix =  0.700 |ddv_scf|^2 =  1.082E-14

     Pert. #  1: Fermi energy shift (Ry) =     3.6575E-10    -8.0779E-28

      iter #   9 total cpu time :   612.7 secs   av.it.:  16.4
      thresh= 1.040E-08 alpha_mix =  0.700 |ddv_scf|^2 =  3.777E-15

     End of self-consistent calculation

     Convergence has been achieved 


     Representation #   4 mode #   4

     Self-consistent Calculation

     Pert. #  1: Fermi energy shift (Ry) =    -8.8853E-08     0.0000E+00

      iter #   1 total cpu time :   625.3 secs   av.it.:   5.6
      thresh= 1.000E-02 alpha_mix =  0.700 |ddv_scf|^2 =  4.998E-07

     Pert. #  1: Fermi energy shift (Ry) =    -3.7297E-09     0.0000E+00

      iter #   2 total cpu time :   645.7 secs   av.it.:  16.9
      thresh= 7.070E-05 alpha_mix =  0.700 |ddv_scf|^2 =  3.210E-07

     Pert. #  1: Fermi energy shift (Ry) =    -2.1283E-09     0.0000E+00

      iter #   3 total cpu time :   665.2 secs   av.it.:  16.2
      thresh= 5.666E-05 alpha_mix =  0.700 |ddv_scf|^2 =  2.972E-09

     Pert. #  1: Fermi energy shift (Ry) =     4.7859E-09     0.0000E+00

      iter #   4 total cpu time :   685.6 secs   av.it.:  17.0
      thresh= 5.452E-06 alpha_mix =  0.700 |ddv_scf|^2 =  3.126E-10

     Pert. #  1: Fermi energy shift (Ry) =     2.0663E-09     0.0000E+00

      iter #   5 total cpu time :   705.4 secs   av.it.:  16.4
      thresh= 1.768E-06 alpha_mix =  0.700 |ddv_scf|^2 =  9.852E-12

     Pert. #  1: Fermi energy shift (Ry) =     4.6009E-10     0.0000E+00

      iter #   6 total cpu time :   725.1 secs   av.it.:  16.4
      thresh= 3.139E-07 alpha_mix =  0.700 |ddv_scf|^2 =  8.025E-13

     Pert. #  1: Fermi energy shift (Ry) =     1.9589E-10     0.0000E+00

      iter #   7 total cpu time :   745.2 secs   av.it.:  16.7
      thresh= 8.958E-08 alpha_mix =  0.700 |ddv_scf|^2 =  9.543E-14

     Pert. #  1: Fermi energy shift (Ry) =     1.0395E-10     0.0000E+00

      iter #   8 total cpu time :   765.3 secs   av.it.:  16.8
      thresh= 3.089E-08 alpha_mix =  0.700 |ddv_scf|^2 =  1.082E-14

     Pert. #  1: Fermi energy shift (Ry) =     1.0278E-10     0.0000E+00

      iter #   9 total cpu time :   785.1 secs   av.it.:  16.4
      thresh= 1.040E-08 alpha_mix =  0.700 |ddv_scf|^2 =  3.778E-15

     End of self-consistent calculation

     Convergence has been achieved 


     Representation #   5 mode #   5

     Self-consistent Calculation

     Pert. #  1: Fermi energy shift (Ry) =     2.6129E-07     2.1176E-22

      iter #   1 total cpu time :   797.8 secs   av.it.:   5.6
      thresh= 1.000E-02 alpha_mix =  0.700 |ddv_scf|^2 =  4.998E-07

     Pert. #  1: Fermi energy shift (Ry) =    -5.8121E-08    -6.6174E-24

      iter #   2 total cpu time :   817.9 secs   av.it.:  16.9
      thresh= 7.070E-05 alpha_mix =  0.700 |ddv_scf|^2 =  3.210E-07

     Pert. #  1: Fermi energy shift (Ry) =    -3.4194E-08     3.3087E-24

      iter #   3 total cpu time :   837.4 secs   av.it.:  16.2
      thresh= 5.666E-05 alpha_mix =  0.700 |ddv_scf|^2 =  2.972E-09

     Pert. #  1: Fermi energy shift (Ry) =    -9.8089E-09    -4.1359E-25

      iter #   4 total cpu time :   857.6 secs   av.it.:  17.0
      thresh= 5.452E-06 alpha_mix =  0.700 |ddv_scf|^2 =  3.126E-10

     Pert. #  1: Fermi energy shift (Ry) =    -3.6517E-09     1.0340E-25

      iter #   5 total cpu time :   877.3 secs   av.it.:  16.4
      thresh= 1.768E-06 alpha_mix =  0.700 |ddv_scf|^2 =  9.852E-12

     Pert. #  1: Fermi energy shift (Ry) =    -8.3424E-10     6.4623E-27

      iter #   6 total cpu time :   896.9 secs   av.it.:  16.4
      thresh= 3.139E-07 alpha_mix =  0.700 |ddv_scf|^2 =  8.025E-13

     Pert. #  1: Fermi energy shift (Ry) =    -2.8444E-10     6.4623E-27

      iter #   7 total cpu time :   916.8 secs   av.it.:  16.7
      thresh= 8.959E-08 alpha_mix =  0.700 |ddv_scf|^2 =  9.543E-14

     Pert. #  1: Fermi energy shift (Ry) =    -1.9090E-10     1.6156E-27

      iter #   8 total cpu time :   936.8 secs   av.it.:  16.7
      thresh= 3.089E-08 alpha_mix =  0.700 |ddv_scf|^2 =  1.082E-14

     Pert. #  1: Fermi energy shift (Ry) =    -2.0079E-10    -1.6156E-27

      iter #   9 total cpu time :   956.5 secs   av.it.:  16.4
      thresh= 1.040E-08 alpha_mix =  0.700 |ddv_scf|^2 =  3.778E-15

     End of self-consistent calculation

     Convergence has been achieved 


     Representation #   6 mode #   6

     Self-consistent Calculation

     Pert. #  1: Fermi energy shift (Ry) =    -4.0263E-08    -1.0588E-22

      iter #   1 total cpu time :   969.1 secs   av.it.:   5.6
      thresh= 1.000E-02 alpha_mix =  0.700 |ddv_scf|^2 =  4.998E-07

     Pert. #  1: Fermi energy shift (Ry) =    -2.4383E-08    -1.3235E-23

      iter #   2 total cpu time :   989.3 secs   av.it.:  16.9
      thresh= 7.070E-05 alpha_mix =  0.700 |ddv_scf|^2 =  3.210E-07

     Pert. #  1: Fermi energy shift (Ry) =     3.3343E-09     1.6544E-24

      iter #   3 total cpu time :  1008.8 secs   av.it.:  16.2
      thresh= 5.666E-05 alpha_mix =  0.700 |ddv_scf|^2 =  2.972E-09

     Pert. #  1: Fermi energy shift (Ry) =     3.4279E-09    -2.0680E-25

      iter #   4 total cpu time :  1029.0 secs   av.it.:  17.0
      thresh= 5.452E-06 alpha_mix =  0.700 |ddv_scf|^2 =  3.127E-10

     Pert. #  1: Fermi energy shift (Ry) =    -8.4739E-11     1.0340E-25

      iter #   5 total cpu time :  1048.7 secs   av.it.:  16.4
      thresh= 1.768E-06 alpha_mix =  0.700 |ddv_scf|^2 =  9.851E-12

     Pert. #  1: Fermi energy shift (Ry) =     1.5062E-10     2.5849E-26

      iter #   6 total cpu time :  1068.4 secs   av.it.:  16.4
      thresh= 3.139E-07 alpha_mix =  0.700 |ddv_scf|^2 =  8.024E-13

     Pert. #  1: Fermi energy shift (Ry) =     9.5057E-11     1.2925E-26

      iter #   7 total cpu time :  1088.2 secs   av.it.:  16.7
      thresh= 8.958E-08 alpha_mix =  0.700 |ddv_scf|^2 =  9.541E-14

     Pert. #  1: Fermi energy shift (Ry) =     8.7471E-11     8.0779E-28

      iter #   8 total cpu time :  1108.2 secs   av.it.:  16.7
      thresh= 3.089E-08 alpha_mix =  0.700 |ddv_scf|^2 =  1.082E-14

     Pert. #  1: Fermi energy shift (Ry) =     9.7410E-11    -1.6156E-27

      iter #   9 total cpu time :  1127.8 secs   av.it.:  16.4
      thresh= 1.040E-08 alpha_mix =  0.700 |ddv_scf|^2 =  3.776E-15

     End of self-consistent calculation

     Convergence has been achieved 


     Representation #   7 mode #   7

     Self-consistent Calculation

     Pert. #  1: Fermi energy shift (Ry) =     1.2373E-07     0.0000E+00

      iter #   1 total cpu time :  1140.5 secs   av.it.:   5.6
      thresh= 1.000E-02 alpha_mix =  0.700 |ddv_scf|^2 =  4.998E-07

     Pert. #  1: Fermi energy shift (Ry) =     2.7866E-08     0.0000E+00

      iter #   2 total cpu time :  1160.7 secs   av.it.:  16.9
      thresh= 7.070E-05 alpha_mix =  0.700 |ddv_scf|^2 =  3.210E-07

     Pert. #  1: Fermi energy shift (Ry) =     3.4367E-08     0.0000E+00

      iter #   3 total cpu time :  1180.1 secs   av.it.:  16.2
      thresh= 5.666E-05 alpha_mix =  0.700 |ddv_scf|^2 =  2.972E-09

     Pert. #  1: Fermi energy shift (Ry) =     1.0300E-08     0.0000E+00

      iter #   4 total cpu time :  1200.4 secs   av.it.:  17.0
      thresh= 5.452E-06 alpha_mix =  0.700 |ddv_scf|^2 =  3.126E-10

     Pert. #  1: Fermi energy shift (Ry) =     2.0079E-09     0.0000E+00

      iter #   5 total cpu time :  1220.1 secs   av.it.:  16.4
      thresh= 1.768E-06 alpha_mix =  0.700 |ddv_scf|^2 =  9.852E-12

     Pert. #  1: Fermi energy shift (Ry) =     6.1011E-10     0.0000E+00

      iter #   6 total cpu time :  1239.8 secs   av.it.:  16.4
      thresh= 3.139E-07 alpha_mix =  0.700 |ddv_scf|^2 =  8.025E-13

     Pert. #  1: Fermi energy shift (Ry) =     2.9605E-10     0.0000E+00

      iter #   7 total cpu time :  1259.7 secs   av.it.:  16.7
      thresh= 8.958E-08 alpha_mix =  0.700 |ddv_scf|^2 =  9.543E-14

     Pert. #  1: Fermi energy shift (Ry) =     2.1417E-10     0.0000E+00

      iter #   8 total cpu time :  1279.6 secs   av.it.:  16.7
      thresh= 3.089E-08 alpha_mix =  0.700 |ddv_scf|^2 =  1.082E-14

     Pert. #  1: Fermi energy shift (Ry) =     2.2180E-10     0.0000E+00

      iter #   9 total cpu time :  1299.3 secs   av.it.:  16.4
      thresh= 1.040E-08 alpha_mix =  0.700 |ddv_scf|^2 =  3.777E-15

     End of self-consistent calculation

     Convergence has been achieved 


     Representation #   8 mode #   8

     Self-consistent Calculation

     Pert. #  1: Fermi energy shift (Ry) =    -1.9830E-07    -8.4703E-22

      iter #   1 total cpu time :  1312.0 secs   av.it.:   5.6
      thresh= 1.000E-02 alpha_mix =  0.700 |ddv_scf|^2 =  4.998E-07

     Pert. #  1: Fermi energy shift (Ry) =    -2.1625E-08     8.2718E-25

      iter #   2 total cpu time :  1332.1 secs   av.it.:  16.9
      thresh= 7.070E-05 alpha_mix =  0.700 |ddv_scf|^2 =  3.210E-07

     Pert. #  1: Fermi energy shift (Ry) =     4.4808E-09     1.3235E-23

      iter #   3 total cpu time :  1351.6 secs   av.it.:  16.2
      thresh= 5.666E-05 alpha_mix =  0.700 |ddv_scf|^2 =  2.972E-09

     Pert. #  1: Fermi energy shift (Ry) =     6.6980E-09    -8.2718E-25

      iter #   4 total cpu time :  1371.8 secs   av.it.:  17.0
      thresh= 5.452E-06 alpha_mix =  0.700 |ddv_scf|^2 =  3.127E-10

     Pert. #  1: Fermi energy shift (Ry) =     2.4686E-09     5.1699E-26

      iter #   5 total cpu time :  1391.5 secs   av.it.:  16.4
      thresh= 1.768E-06 alpha_mix =  0.700 |ddv_scf|^2 =  9.852E-12

     Pert. #  1: Fermi energy shift (Ry) =     2.2691E-10    -5.1699E-26

      iter #   6 total cpu time :  1411.2 secs   av.it.:  16.4
      thresh= 3.139E-07 alpha_mix =  0.700 |ddv_scf|^2 =  8.025E-13

     Pert. #  1: Fermi energy shift (Ry) =     9.4083E-11    -6.4623E-27

      iter #   7 total cpu time :  1431.1 secs   av.it.:  16.7
      thresh= 8.958E-08 alpha_mix =  0.700 |ddv_scf|^2 =  9.542E-14

     Pert. #  1: Fermi energy shift (Ry) =    -7.6495E-11     1.6156E-27

      iter #   8 total cpu time :  1451.1 secs   av.it.:  16.7
      thresh= 3.089E-08 alpha_mix =  0.700 |ddv_scf|^2 =  1.082E-14

     Pert. #  1: Fermi energy shift (Ry) =    -8.8245E-11     4.0390E-28

      iter #   9 total cpu time :  1470.8 secs   av.it.:  16.4
      thresh= 1.040E-08 alpha_mix =  0.700 |ddv_scf|^2 =  3.777E-15

     End of self-consistent calculation

     Convergence has been achieved 


     Representation #   9 mode #   9

     Self-consistent Calculation

     Pert. #  1: Fermi energy shift (Ry) =    -1.3193E-07    -1.6941E-21

      iter #   1 total cpu time :  1483.4 secs   av.it.:   5.6
      thresh= 1.000E-02 alpha_mix =  0.700 |ddv_scf|^2 =  4.998E-07

     Pert. #  1: Fermi energy shift (Ry) =    -6.6182E-10     1.6544E-24

      iter #   2 total cpu time :  1503.5 secs   av.it.:  16.9
      thresh= 7.070E-05 alpha_mix =  0.700 |ddv_scf|^2 =  3.210E-07

     Pert. #  1: Fermi energy shift (Ry) =     1.7564E-08     6.6174E-24

      iter #   3 total cpu time :  1523.0 secs   av.it.:  16.2
      thresh= 5.666E-05 alpha_mix =  0.700 |ddv_scf|^2 =  2.972E-09

     Pert. #  1: Fermi energy shift (Ry) =     7.1613E-09    -2.0680E-25

      iter #   4 total cpu time :  1543.3 secs   av.it.:  17.0
      thresh= 5.452E-06 alpha_mix =  0.700 |ddv_scf|^2 =  3.126E-10

     Pert. #  1: Fermi energy shift (Ry) =     4.6469E-10     2.5849E-26

      iter #   5 total cpu time :  1563.0 secs   av.it.:  16.4
      thresh= 1.768E-06 alpha_mix =  0.700 |ddv_scf|^2 =  9.852E-12

     Pert. #  1: Fermi energy shift (Ry) =     1.0262E-10    -6.4623E-27

      iter #   6 total cpu time :  1582.8 secs   av.it.:  16.4
      thresh= 3.139E-07 alpha_mix =  0.700 |ddv_scf|^2 =  8.025E-13

     Pert. #  1: Fermi energy shift (Ry) =    -6.4052E-11    -4.0390E-28

      iter #   7 total cpu time :  1602.8 secs   av.it.:  16.7
      thresh= 8.958E-08 alpha_mix =  0.700 |ddv_scf|^2 =  9.542E-14

     Pert. #  1: Fermi energy shift (Ry) =    -8.6970E-11     8.0779E-28

      iter #   8 total cpu time :  1622.7 secs   av.it.:  16.7
      thresh= 3.089E-08 alpha_mix =  0.700 |ddv_scf|^2 =  1.082E-14

     Pert. #  1: Fermi energy shift (Ry) =    -6.8114E-11     4.0390E-28

      iter #   9 total cpu time :  1642.4 secs   av.it.:  16.4
      thresh= 1.040E-08 alpha_mix =  0.700 |ddv_scf|^2 =  3.777E-15

     End of self-consistent calculation

     Convergence has been achieved 


     Representation #  10 mode #  10

     Self-consistent Calculation

     Pert. #  1: Fermi energy shift (Ry) =    -9.5789E-08     0.0000E+00

      iter #   1 total cpu time :  1655.0 secs   av.it.:   5.6
      thresh= 1.000E-02 alpha_mix =  0.700 |ddv_scf|^2 =  4.998E-07

     Pert. #  1: Fermi energy shift (Ry) =     2.5856E-08     0.0000E+00

      iter #   2 total cpu time :  1675.3 secs   av.it.:  16.9
      thresh= 7.070E-05 alpha_mix =  0.700 |ddv_scf|^2 =  3.210E-07

     Pert. #  1: Fermi energy shift (Ry) =    -2.3939E-08     0.0000E+00

      iter #   3 total cpu time :  1694.8 secs   av.it.:  16.2
      thresh= 5.666E-05 alpha_mix =  0.700 |ddv_scf|^2 =  2.972E-09

     Pert. #  1: Fermi energy shift (Ry) =    -1.5630E-08     0.0000E+00

      iter #   4 total cpu time :  1715.1 secs   av.it.:  17.0
      thresh= 5.452E-06 alpha_mix =  0.700 |ddv_scf|^2 =  3.126E-10

     Pert. #  1: Fermi energy shift (Ry) =    -2.4801E-09     0.0000E+00

      iter #   5 total cpu time :  1734.9 secs   av.it.:  16.4
      thresh= 1.768E-06 alpha_mix =  0.700 |ddv_scf|^2 =  9.852E-12

     Pert. #  1: Fermi energy shift (Ry) =    -4.2501E-10     0.0000E+00

      iter #   6 total cpu time :  1754.6 secs   av.it.:  16.4
      thresh= 3.139E-07 alpha_mix =  0.700 |ddv_scf|^2 =  8.025E-13

     Pert. #  1: Fermi energy shift (Ry) =    -5.7909E-11     0.0000E+00

      iter #   7 total cpu time :  1774.5 secs   av.it.:  16.7
      thresh= 8.958E-08 alpha_mix =  0.700 |ddv_scf|^2 =  9.541E-14

     Pert. #  1: Fermi energy shift (Ry) =     1.5941E-10     0.0000E+00

      iter #   8 total cpu time :  1794.5 secs   av.it.:  16.7
      thresh= 3.089E-08 alpha_mix =  0.700 |ddv_scf|^2 =  1.082E-14

     Pert. #  1: Fermi energy shift (Ry) =     1.3572E-10     0.0000E+00

      iter #   9 total cpu time :  1814.2 secs   av.it.:  16.4
      thresh= 1.040E-08 alpha_mix =  0.700 |ddv_scf|^2 =  3.777E-15

     End of self-consistent calculation

     Convergence has been achieved 


     Representation #  11 mode #  11

     Self-consistent Calculation

     Pert. #  1: Fermi energy shift (Ry) =    -1.6078E-07    -1.6941E-21

      iter #   1 total cpu time :  1826.9 secs   av.it.:   5.6
      thresh= 1.000E-02 alpha_mix =  0.700 |ddv_scf|^2 =  4.998E-07

     Pert. #  1: Fermi energy shift (Ry) =     1.8704E-09     6.6174E-24

      iter #   2 total cpu time :  1847.1 secs   av.it.:  16.9
      thresh= 7.070E-05 alpha_mix =  0.700 |ddv_scf|^2 =  3.210E-07

     Pert. #  1: Fermi energy shift (Ry) =     1.7798E-08     1.3235E-23

      iter #   3 total cpu time :  1866.5 secs   av.it.:  16.2
      thresh= 5.666E-05 alpha_mix =  0.700 |ddv_scf|^2 =  2.972E-09

     Pert. #  1: Fermi energy shift (Ry) =     8.9432E-09    -1.0340E-25

      iter #   4 total cpu time :  1886.9 secs   av.it.:  17.0
      thresh= 5.452E-06 alpha_mix =  0.700 |ddv_scf|^2 =  3.126E-10

     Pert. #  1: Fermi energy shift (Ry) =     2.1928E-09    -1.0340E-25

      iter #   5 total cpu time :  1906.7 secs   av.it.:  16.4
      thresh= 1.768E-06 alpha_mix =  0.700 |ddv_scf|^2 =  9.852E-12

     Pert. #  1: Fermi energy shift (Ry) =    -8.8430E-12     1.6156E-27

      iter #   6 total cpu time :  1926.5 secs   av.it.:  16.4
      thresh= 3.139E-07 alpha_mix =  0.700 |ddv_scf|^2 =  8.026E-13

     Pert. #  1: Fermi energy shift (Ry) =    -6.9082E-11     3.2312E-27

      iter #   7 total cpu time :  1946.6 secs   av.it.:  16.7
      thresh= 8.959E-08 alpha_mix =  0.700 |ddv_scf|^2 =  9.544E-14

     Pert. #  1: Fermi energy shift (Ry) =    -2.1407E-10     6.4623E-27

      iter #   8 total cpu time :  1966.5 secs   av.it.:  16.7
      thresh= 3.089E-08 alpha_mix =  0.700 |ddv_scf|^2 =  1.082E-14

     Pert. #  1: Fermi energy shift (Ry) =    -2.2741E-10    -8.0779E-28

      iter #   9 total cpu time :  1986.2 secs   av.it.:  16.4
      thresh= 1.040E-08 alpha_mix =  0.700 |ddv_scf|^2 =  3.778E-15

     End of self-consistent calculation

     Convergence has been achieved 


     Representation #  12 mode #  12

     Self-consistent Calculation

     Pert. #  1: Fermi energy shift (Ry) =     4.5354E-08    -1.6941E-21

      iter #   1 total cpu time :  1998.9 secs   av.it.:   5.6
      thresh= 1.000E-02 alpha_mix =  0.700 |ddv_scf|^2 =  4.998E-07

     Pert. #  1: Fermi energy shift (Ry) =    -1.2904E-08     6.6174E-24

      iter #   2 total cpu time :  2019.0 secs   av.it.:  16.9
      thresh= 7.070E-05 alpha_mix =  0.700 |ddv_scf|^2 =  3.210E-07

     Pert. #  1: Fermi energy shift (Ry) =     1.1992E-08     6.6174E-24

      iter #   3 total cpu time :  2038.5 secs   av.it.:  16.2
      thresh= 5.666E-05 alpha_mix =  0.700 |ddv_scf|^2 =  2.972E-09

     Pert. #  1: Fermi energy shift (Ry) =     4.9851E-09    -2.0680E-25

      iter #   4 total cpu time :  2058.7 secs   av.it.:  17.0
      thresh= 5.452E-06 alpha_mix =  0.700 |ddv_scf|^2 =  3.127E-10

     Pert. #  1: Fermi energy shift (Ry) =    -1.3360E-10    -1.0340E-25

      iter #   5 total cpu time :  2078.4 secs   av.it.:  16.4
      thresh= 1.768E-06 alpha_mix =  0.700 |ddv_scf|^2 =  9.852E-12

     Pert. #  1: Fermi energy shift (Ry) =     1.3874E-11    -1.2925E-26

      iter #   6 total cpu time :  2098.1 secs   av.it.:  16.4
      thresh= 3.139E-07 alpha_mix =  0.700 |ddv_scf|^2 =  8.026E-13

     Pert. #  1: Fermi energy shift (Ry) =     4.5186E-11     6.4623E-27

      iter #   7 total cpu time :  2118.1 secs   av.it.:  16.7
      thresh= 8.959E-08 alpha_mix =  0.700 |ddv_scf|^2 =  9.543E-14

     Pert. #  1: Fermi energy shift (Ry) =     3.0677E-11     3.2312E-27

      iter #   8 total cpu time :  2138.1 secs   av.it.:  16.7
      thresh= 3.089E-08 alpha_mix =  0.700 |ddv_scf|^2 =  1.082E-14

     Pert. #  1: Fermi energy shift (Ry) =     4.2492E-11     4.0390E-28

      iter #   9 total cpu time :  2157.7 secs   av.it.:  16.4
      thresh= 1.040E-08 alpha_mix =  0.700 |ddv_scf|^2 =  3.777E-15

     End of self-consistent calculation

     Convergence has been achieved 


     Representation #  13 mode #  13

     Self-consistent Calculation

     Pert. #  1: Fermi energy shift (Ry) =    -5.4257E-07     0.0000E+00

      iter #   1 total cpu time :  2174.6 secs   av.it.:   9.5
      thresh= 1.000E-02 alpha_mix =  0.700 |ddv_scf|^2 =  5.702E-06

     Pert. #  1: Fermi energy shift (Ry) =    -3.1999E-07     0.0000E+00

      iter #   2 total cpu time :  2196.1 secs   av.it.:  18.0
      thresh= 2.388E-04 alpha_mix =  0.700 |ddv_scf|^2 =  2.826E-06

     Pert. #  1: Fermi energy shift (Ry) =    -1.0083E-07     0.0000E+00

      iter #   3 total cpu time :  2216.5 secs   av.it.:  16.9
      thresh= 1.681E-04 alpha_mix =  0.700 |ddv_scf|^2 =  6.635E-08

     Pert. #  1: Fermi energy shift (Ry) =     2.1764E-08     0.0000E+00

      iter #   4 total cpu time :  2237.5 secs   av.it.:  17.5
      thresh= 2.576E-05 alpha_mix =  0.700 |ddv_scf|^2 =  3.223E-09

     Pert. #  1: Fermi energy shift (Ry) =     3.0192E-09     0.0000E+00

      iter #   5 total cpu time :  2258.4 secs   av.it.:  17.4
      thresh= 5.677E-06 alpha_mix =  0.700 |ddv_scf|^2 =  8.931E-11

     Pert. #  1: Fermi energy shift (Ry) =     4.3297E-09     0.0000E+00

      iter #   6 total cpu time :  2279.6 secs   av.it.:  17.8
      thresh= 9.450E-07 alpha_mix =  0.700 |ddv_scf|^2 =  2.195E-11

     Pert. #  1: Fermi energy shift (Ry) =     3.2256E-09     0.0000E+00

      iter #   7 total cpu time :  2299.6 secs   av.it.:  16.7
      thresh= 4.685E-07 alpha_mix =  0.700 |ddv_scf|^2 =  1.765E-12

     Pert. #  1: Fermi energy shift (Ry) =     2.1353E-09     0.0000E+00

      iter #   8 total cpu time :  2319.2 secs   av.it.:  16.2
      thresh= 1.329E-07 alpha_mix =  0.700 |ddv_scf|^2 =  2.466E-14

     Pert. #  1: Fermi energy shift (Ry) =     2.2999E-09     0.0000E+00

      iter #   9 total cpu time :  2340.9 secs   av.it.:  18.1
      thresh= 1.570E-08 alpha_mix =  0.700 |ddv_scf|^2 =  1.029E-14

     Pert. #  1: Fermi energy shift (Ry) =     2.1890E-09     0.0000E+00

      iter #  10 total cpu time :  2361.0 secs   av.it.:  16.7
      thresh= 1.014E-08 alpha_mix =  0.700 |ddv_scf|^2 =  4.602E-16

     End of self-consistent calculation

     Convergence has been achieved 


     Representation #  14 mode #  14

     Self-consistent Calculation

     Pert. #  1: Fermi energy shift (Ry) =     8.3549E-07     1.6941E-21

      iter #   1 total cpu time :  2377.7 secs   av.it.:   9.5
      thresh= 1.000E-02 alpha_mix =  0.700 |ddv_scf|^2 =  5.702E-06

     Pert. #  1: Fermi energy shift (Ry) =     3.3054E-07    -2.6470E-23

      iter #   2 total cpu time :  2399.1 secs   av.it.:  18.0
      thresh= 2.388E-04 alpha_mix =  0.700 |ddv_scf|^2 =  2.826E-06

     Pert. #  1: Fermi energy shift (Ry) =     9.6874E-08    -6.6174E-24

      iter #   3 total cpu time :  2419.3 secs   av.it.:  16.9
      thresh= 1.681E-04 alpha_mix =  0.700 |ddv_scf|^2 =  6.635E-08

     Pert. #  1: Fermi energy shift (Ry) =    -7.9405E-09     4.1359E-25

      iter #   4 total cpu time :  2440.3 secs   av.it.:  17.5
      thresh= 2.576E-05 alpha_mix =  0.700 |ddv_scf|^2 =  3.223E-09

     Pert. #  1: Fermi energy shift (Ry) =     2.9417E-10     5.1699E-26

      iter #   5 total cpu time :  2461.2 secs   av.it.:  17.4
      thresh= 5.677E-06 alpha_mix =  0.700 |ddv_scf|^2 =  8.931E-11

     Pert. #  1: Fermi energy shift (Ry) =    -4.9791E-10     2.0680E-25

      iter #   6 total cpu time :  2482.3 secs   av.it.:  17.8
      thresh= 9.450E-07 alpha_mix =  0.700 |ddv_scf|^2 =  2.195E-11

     Pert. #  1: Fermi energy shift (Ry) =    -3.3921E-10    -1.6156E-27

      iter #   7 total cpu time :  2502.3 secs   av.it.:  16.7
      thresh= 4.685E-07 alpha_mix =  0.700 |ddv_scf|^2 =  1.765E-12

     Pert. #  1: Fermi energy shift (Ry) =     2.2658E-10    -1.2925E-26

      iter #   8 total cpu time :  2521.7 secs   av.it.:  16.2
      thresh= 1.329E-07 alpha_mix =  0.700 |ddv_scf|^2 =  2.466E-14

     Pert. #  1: Fermi energy shift (Ry) =     3.4508E-10     6.4623E-27

      iter #   9 total cpu time :  2543.2 secs   av.it.:  18.1
      thresh= 1.570E-08 alpha_mix =  0.700 |ddv_scf|^2 =  1.029E-14

     Pert. #  1: Fermi energy shift (Ry) =     3.6925E-10     3.2312E-27

      iter #  10 total cpu time :  2563.3 secs   av.it.:  16.7
      thresh= 1.014E-08 alpha_mix =  0.700 |ddv_scf|^2 =  4.602E-16

     End of self-consistent calculation

     Convergence has been achieved 


     Representation #  15 mode #  15

     Self-consistent Calculation

     Pert. #  1: Fermi energy shift (Ry) =     6.8720E-07     1.6941E-21

      iter #   1 total cpu time :  2580.0 secs   av.it.:   9.5
      thresh= 1.000E-02 alpha_mix =  0.700 |ddv_scf|^2 =  5.702E-06

     Pert. #  1: Fermi energy shift (Ry) =     4.3084E-07    -6.6174E-24

      iter #   2 total cpu time :  2601.4 secs   av.it.:  18.0
      thresh= 2.388E-04 alpha_mix =  0.700 |ddv_scf|^2 =  2.826E-06

     Pert. #  1: Fermi energy shift (Ry) =    -1.0474E-07    -3.3087E-24

      iter #   3 total cpu time :  2621.6 secs   av.it.:  16.9
      thresh= 1.681E-04 alpha_mix =  0.700 |ddv_scf|^2 =  6.635E-08

     Pert. #  1: Fermi energy shift (Ry) =    -1.1165E-07     8.2718E-25

      iter #   4 total cpu time :  2642.6 secs   av.it.:  17.5
      thresh= 2.576E-05 alpha_mix =  0.700 |ddv_scf|^2 =  3.223E-09

     Pert. #  1: Fermi energy shift (Ry) =    -8.4110E-09     2.0680E-25

      iter #   5 total cpu time :  2663.5 secs   av.it.:  17.4
      thresh= 5.677E-06 alpha_mix =  0.700 |ddv_scf|^2 =  8.931E-11

     Pert. #  1: Fermi energy shift (Ry) =    -6.5023E-09     2.0680E-25

      iter #   6 total cpu time :  2684.7 secs   av.it.:  17.8
      thresh= 9.451E-07 alpha_mix =  0.700 |ddv_scf|^2 =  2.195E-11

     Pert. #  1: Fermi energy shift (Ry) =    -3.1092E-09     1.2925E-26

      iter #   7 total cpu time :  2704.7 secs   av.it.:  16.7
      thresh= 4.685E-07 alpha_mix =  0.700 |ddv_scf|^2 =  1.765E-12

     Pert. #  1: Fermi energy shift (Ry) =    -9.7867E-10    -6.4623E-27

      iter #   8 total cpu time :  2724.8 secs   av.it.:  16.2
      thresh= 1.329E-07 alpha_mix =  0.700 |ddv_scf|^2 =  2.466E-14

     Pert. #  1: Fermi energy shift (Ry) =    -1.4887E-09     6.4623E-27

      iter #   9 total cpu time :  2746.4 secs   av.it.:  18.1
      thresh= 1.570E-08 alpha_mix =  0.700 |ddv_scf|^2 =  1.029E-14

     Pert. #  1: Fermi energy shift (Ry) =    -1.1045E-09     3.2312E-27

      iter #  10 total cpu time :  2767.6 secs   av.it.:  16.7
      thresh= 1.014E-08 alpha_mix =  0.700 |ddv_scf|^2 =  4.602E-16

     End of self-consistent calculation

     Convergence has been achieved 


     Representation #  16 mode #  16

     Self-consistent Calculation

     Pert. #  1: Fermi energy shift (Ry) =     1.9564E-07     0.0000E+00

      iter #   1 total cpu time :  2784.7 secs   av.it.:   9.5
      thresh= 1.000E-02 alpha_mix =  0.700 |ddv_scf|^2 =  5.702E-06

     Pert. #  1: Fermi energy shift (Ry) =     3.5597E-07     0.0000E+00

      iter #   2 total cpu time :  2806.3 secs   av.it.:  18.0
      thresh= 2.388E-04 alpha_mix =  0.700 |ddv_scf|^2 =  2.826E-06

     Pert. #  1: Fermi energy shift (Ry) =     6.5828E-09     0.0000E+00

      iter #   3 total cpu time :  2826.6 secs   av.it.:  16.9
      thresh= 1.681E-04 alpha_mix =  0.700 |ddv_scf|^2 =  6.635E-08

     Pert. #  1: Fermi energy shift (Ry) =    -7.3130E-08     0.0000E+00

      iter #   4 total cpu time :  2847.8 secs   av.it.:  17.5
      thresh= 2.576E-05 alpha_mix =  0.700 |ddv_scf|^2 =  3.223E-09

     Pert. #  1: Fermi energy shift (Ry) =    -9.9517E-09     0.0000E+00

      iter #   5 total cpu time :  2869.5 secs   av.it.:  17.4
      thresh= 5.677E-06 alpha_mix =  0.700 |ddv_scf|^2 =  8.931E-11

     Pert. #  1: Fermi energy shift (Ry) =    -5.6759E-09     0.0000E+00

      iter #   6 total cpu time :  2890.7 secs   av.it.:  17.8
      thresh= 9.450E-07 alpha_mix =  0.700 |ddv_scf|^2 =  2.195E-11

     Pert. #  1: Fermi energy shift (Ry) =    -4.1052E-09     0.0000E+00

      iter #   7 total cpu time :  2911.0 secs   av.it.:  16.7
      thresh= 4.685E-07 alpha_mix =  0.700 |ddv_scf|^2 =  1.765E-12

     Pert. #  1: Fermi energy shift (Ry) =    -2.4926E-09     0.0000E+00

      iter #   8 total cpu time :  2930.6 secs   av.it.:  16.2
      thresh= 1.329E-07 alpha_mix =  0.700 |ddv_scf|^2 =  2.466E-14

     Pert. #  1: Fermi energy shift (Ry) =    -2.5808E-09     0.0000E+00

      iter #   9 total cpu time :  2952.4 secs   av.it.:  18.1
      thresh= 1.570E-08 alpha_mix =  0.700 |ddv_scf|^2 =  1.029E-14

     Pert. #  1: Fermi energy shift (Ry) =    -2.4164E-09     0.0000E+00

      iter #  10 total cpu time :  2972.4 secs   av.it.:  16.7
      thresh= 1.014E-08 alpha_mix =  0.700 |ddv_scf|^2 =  4.602E-16

     End of self-consistent calculation

     Convergence has been achieved 


     Representation #  17 mode #  17

     Self-consistent Calculation

     Pert. #  1: Fermi energy shift (Ry) =    -2.8737E-07     1.6941E-21

      iter #   1 total cpu time :  2989.4 secs   av.it.:   9.5
      thresh= 1.000E-02 alpha_mix =  0.700 |ddv_scf|^2 =  5.702E-06

     Pert. #  1: Fermi energy shift (Ry) =    -2.5515E-09    -2.6470E-23

      iter #   2 total cpu time :  3010.8 secs   av.it.:  18.0
      thresh= 2.388E-04 alpha_mix =  0.700 |ddv_scf|^2 =  2.826E-06

     Pert. #  1: Fermi energy shift (Ry) =     6.5546E-08    -6.6174E-24

      iter #   3 total cpu time :  3031.1 secs   av.it.:  16.9
      thresh= 1.681E-04 alpha_mix =  0.700 |ddv_scf|^2 =  6.635E-08

     Pert. #  1: Fermi energy shift (Ry) =     2.8510E-08     4.1359E-25

      iter #   4 total cpu time :  3052.1 secs   av.it.:  17.5
      thresh= 2.576E-05 alpha_mix =  0.700 |ddv_scf|^2 =  3.223E-09

     Pert. #  1: Fermi energy shift (Ry) =     4.0809E-09     5.1699E-26

      iter #   5 total cpu time :  3073.1 secs   av.it.:  17.4
      thresh= 5.677E-06 alpha_mix =  0.700 |ddv_scf|^2 =  8.931E-11

     Pert. #  1: Fermi energy shift (Ry) =     6.5482E-10     2.0680E-25

      iter #   6 total cpu time :  3094.8 secs   av.it.:  17.8
      thresh= 9.450E-07 alpha_mix =  0.700 |ddv_scf|^2 =  2.195E-11

     Pert. #  1: Fermi energy shift (Ry) =     3.1921E-10    -4.0390E-28

      iter #   7 total cpu time :  3114.8 secs   av.it.:  16.7
      thresh= 4.685E-07 alpha_mix =  0.700 |ddv_scf|^2 =  1.765E-12

     Pert. #  1: Fermi energy shift (Ry) =    -1.6318E-10    -6.4623E-27

      iter #   8 total cpu time :  3134.2 secs   av.it.:  16.2
      thresh= 1.329E-07 alpha_mix =  0.700 |ddv_scf|^2 =  2.466E-14

     Pert. #  1: Fermi energy shift (Ry) =    -2.8826E-10     6.4623E-27

      iter #   9 total cpu time :  3155.7 secs   av.it.:  18.1
      thresh= 1.570E-08 alpha_mix =  0.700 |ddv_scf|^2 =  1.029E-14

     Pert. #  1: Fermi energy shift (Ry) =    -2.8004E-10     3.2312E-27

      iter #  10 total cpu time :  3175.6 secs   av.it.:  16.7
      thresh= 1.014E-08 alpha_mix =  0.700 |ddv_scf|^2 =  4.602E-16

     End of self-consistent calculation

     Convergence has been achieved 


     Representation #  18 mode #  18

     Self-consistent Calculation

     Pert. #  1: Fermi energy shift (Ry) =    -7.7842E-07     1.6941E-21

      iter #   1 total cpu time :  3192.3 secs   av.it.:   9.5
      thresh= 1.000E-02 alpha_mix =  0.700 |ddv_scf|^2 =  5.702E-06

     Pert. #  1: Fermi energy shift (Ry) =    -5.0632E-07    -6.6174E-24

      iter #   2 total cpu time :  3213.5 secs   av.it.:  18.0
      thresh= 2.388E-04 alpha_mix =  0.700 |ddv_scf|^2 =  2.826E-06

     Pert. #  1: Fermi energy shift (Ry) =     1.0612E-07    -3.3087E-24

      iter #   3 total cpu time :  3233.7 secs   av.it.:  16.9
      thresh= 1.681E-04 alpha_mix =  0.700 |ddv_scf|^2 =  6.635E-08

     Pert. #  1: Fermi energy shift (Ry) =     1.2495E-07     8.2718E-25

      iter #   4 total cpu time :  3254.6 secs   av.it.:  17.5
      thresh= 2.576E-05 alpha_mix =  0.700 |ddv_scf|^2 =  3.223E-09

     Pert. #  1: Fermi energy shift (Ry) =     8.3654E-09     2.0680E-25

      iter #   5 total cpu time :  3280.9 secs   av.it.:  17.4
      thresh= 5.677E-06 alpha_mix =  0.700 |ddv_scf|^2 =  8.931E-11

     Pert. #  1: Fermi energy shift (Ry) =     6.6251E-09     2.0680E-25

      iter #   6 total cpu time :  3306.3 secs   av.it.:  17.8
      thresh= 9.451E-07 alpha_mix =  0.700 |ddv_scf|^2 =  2.195E-11

     Pert. #  1: Fermi energy shift (Ry) =     2.9935E-09     6.4623E-27

      iter #   7 total cpu time :  3330.5 secs   av.it.:  16.7
      thresh= 4.685E-07 alpha_mix =  0.700 |ddv_scf|^2 =  1.765E-12

     Pert. #  1: Fermi energy shift (Ry) =     6.3694E-10    -1.2925E-26

      iter #   8 total cpu time :  3349.8 secs   av.it.:  16.2
      thresh= 1.329E-07 alpha_mix =  0.700 |ddv_scf|^2 =  2.466E-14

     Pert. #  1: Fermi energy shift (Ry) =     1.1652E-09     6.4623E-27

      iter #   9 total cpu time :  3371.3 secs   av.it.:  18.1
      thresh= 1.570E-08 alpha_mix =  0.700 |ddv_scf|^2 =  1.029E-14

     Pert. #  1: Fermi energy shift (Ry) =     7.3913E-10     3.2312E-27

      iter #  10 total cpu time :  3391.2 secs   av.it.:  16.7
      thresh= 1.014E-08 alpha_mix =  0.700 |ddv_scf|^2 =  4.602E-16

     End of self-consistent calculation

     Convergence has been achieved 


     Representation #  19 mode #  19

     Self-consistent Calculation

     Pert. #  1: Fermi energy shift (Ry) =    -3.1515E-03     0.0000E+00

      iter #   1 total cpu time :  3402.2 secs   av.it.:   4.0
      thresh= 1.000E-02 alpha_mix =  0.700 |ddv_scf|^2 =  3.883E-08

     Pert. #  1: Fermi energy shift (Ry) =    -1.9455E-04     0.0000E+00

      iter #   2 total cpu time :  3423.1 secs   av.it.:  17.6
      thresh= 1.971E-05 alpha_mix =  0.700 |ddv_scf|^2 =  2.250E-08

     Pert. #  1: Fermi energy shift (Ry) =    -1.8714E-03     0.0000E+00

      iter #   3 total cpu time :  3443.3 secs   av.it.:  16.9
      thresh= 1.500E-05 alpha_mix =  0.700 |ddv_scf|^2 =  2.014E-10

     Pert. #  1: Fermi energy shift (Ry) =    -2.1060E-03     0.0000E+00

      iter #   4 total cpu time :  3464.3 secs   av.it.:  17.7
      thresh= 1.419E-06 alpha_mix =  0.700 |ddv_scf|^2 =  1.805E-11

     Pert. #  1: Fermi energy shift (Ry) =    -2.0118E-03     0.0000E+00

      iter #   5 total cpu time :  3485.1 secs   av.it.:  17.4
      thresh= 4.248E-07 alpha_mix =  0.700 |ddv_scf|^2 =  4.886E-13

     Pert. #  1: Fermi energy shift (Ry) =    -2.0214E-03     0.0000E+00

      iter #   6 total cpu time :  3506.2 secs   av.it.:  17.8
      thresh= 6.990E-08 alpha_mix =  0.700 |ddv_scf|^2 =  7.416E-14

     Pert. #  1: Fermi energy shift (Ry) =    -2.0197E-03     0.0000E+00

      iter #   7 total cpu time :  3527.0 secs   av.it.:  17.5
      thresh= 2.723E-08 alpha_mix =  0.700 |ddv_scf|^2 =  7.823E-15

     End of self-consistent calculation

     Convergence has been achieved 


     Representation #  20 mode #  20

     Self-consistent Calculation

     Pert. #  1: Fermi energy shift (Ry) =    -3.1497E-03    -8.4703E-22

      iter #   1 total cpu time :  3538.1 secs   av.it.:   4.0
      thresh= 1.000E-02 alpha_mix =  0.700 |ddv_scf|^2 =  3.883E-08

     Pert. #  1: Fermi energy shift (Ry) =    -1.9460E-04     1.6544E-24

      iter #   2 total cpu time :  3558.9 secs   av.it.:  17.6
      thresh= 1.971E-05 alpha_mix =  0.700 |ddv_scf|^2 =  2.250E-08

     Pert. #  1: Fermi energy shift (Ry) =    -1.8714E-03     4.1359E-25

      iter #   3 total cpu time :  3579.0 secs   av.it.:  16.9
      thresh= 1.500E-05 alpha_mix =  0.700 |ddv_scf|^2 =  2.015E-10

     Pert. #  1: Fermi energy shift (Ry) =    -2.1060E-03    -2.0680E-25

      iter #   4 total cpu time :  3599.9 secs   av.it.:  17.7
      thresh= 1.419E-06 alpha_mix =  0.700 |ddv_scf|^2 =  1.805E-11

     Pert. #  1: Fermi energy shift (Ry) =    -2.0118E-03     6.4623E-27

      iter #   5 total cpu time :  3620.6 secs   av.it.:  17.4
      thresh= 4.248E-07 alpha_mix =  0.700 |ddv_scf|^2 =  4.886E-13

     Pert. #  1: Fermi energy shift (Ry) =    -2.0214E-03    -3.2312E-27

      iter #   6 total cpu time :  3641.7 secs   av.it.:  17.8
      thresh= 6.990E-08 alpha_mix =  0.700 |ddv_scf|^2 =  7.416E-14

     Pert. #  1: Fermi energy shift (Ry) =    -2.0197E-03    -3.2312E-27

      iter #   7 total cpu time :  3662.6 secs   av.it.:  17.4
      thresh= 2.723E-08 alpha_mix =  0.700 |ddv_scf|^2 =  7.824E-15

     End of self-consistent calculation

     Convergence has been achieved 


     Representation #  21 mode #  21

     Self-consistent Calculation

     Pert. #  1: Fermi energy shift (Ry) =     3.1495E-03    -8.4703E-22

      iter #   1 total cpu time :  3673.8 secs   av.it.:   4.0
      thresh= 1.000E-02 alpha_mix =  0.700 |ddv_scf|^2 =  3.883E-08

     Pert. #  1: Fermi energy shift (Ry) =     1.9468E-04     8.2718E-25

      iter #   2 total cpu time :  3694.8 secs   av.it.:  17.6
      thresh= 1.971E-05 alpha_mix =  0.700 |ddv_scf|^2 =  2.250E-08

     Pert. #  1: Fermi energy shift (Ry) =     1.8715E-03    -1.2925E-26

      iter #   3 total cpu time :  3715.4 secs   av.it.:  16.9
      thresh= 1.500E-05 alpha_mix =  0.700 |ddv_scf|^2 =  2.014E-10

     Pert. #  1: Fermi energy shift (Ry) =     2.1061E-03    -1.0340E-25

      iter #   4 total cpu time :  3736.6 secs   av.it.:  17.7
      thresh= 1.419E-06 alpha_mix =  0.700 |ddv_scf|^2 =  1.805E-11

     Pert. #  1: Fermi energy shift (Ry) =     2.0118E-03     3.2312E-27

      iter #   5 total cpu time :  3757.5 secs   av.it.:  17.4
      thresh= 4.249E-07 alpha_mix =  0.700 |ddv_scf|^2 =  4.886E-13

     Pert. #  1: Fermi energy shift (Ry) =     2.0214E-03    -8.0779E-28

      iter #   6 total cpu time :  3778.8 secs   av.it.:  17.8
      thresh= 6.990E-08 alpha_mix =  0.700 |ddv_scf|^2 =  7.417E-14

     Pert. #  1: Fermi energy shift (Ry) =     2.0197E-03    -1.6156E-27

      iter #   7 total cpu time :  3799.4 secs   av.it.:  17.5
      thresh= 2.723E-08 alpha_mix =  0.700 |ddv_scf|^2 =  7.821E-15

     End of self-consistent calculation

     Convergence has been achieved 


     Representation #  22 mode #  22

     Self-consistent Calculation

     Pert. #  1: Fermi energy shift (Ry) =     3.1506E-03     0.0000E+00

      iter #   1 total cpu time :  3810.5 secs   av.it.:   4.0
      thresh= 1.000E-02 alpha_mix =  0.700 |ddv_scf|^2 =  3.883E-08

     Pert. #  1: Fermi energy shift (Ry) =     1.9481E-04     0.0000E+00

      iter #   2 total cpu time :  3831.4 secs   av.it.:  17.6
      thresh= 1.970E-05 alpha_mix =  0.700 |ddv_scf|^2 =  2.249E-08

     Pert. #  1: Fermi energy shift (Ry) =     1.8714E-03     0.0000E+00

      iter #   3 total cpu time :  3851.8 secs   av.it.:  16.9
      thresh= 1.500E-05 alpha_mix =  0.700 |ddv_scf|^2 =  2.015E-10

     Pert. #  1: Fermi energy shift (Ry) =     2.1060E-03     0.0000E+00

      iter #   4 total cpu time :  3874.3 secs   av.it.:  17.7
      thresh= 1.419E-06 alpha_mix =  0.700 |ddv_scf|^2 =  1.805E-11

     Pert. #  1: Fermi energy shift (Ry) =     2.0118E-03     0.0000E+00

      iter #   5 total cpu time :  3895.4 secs   av.it.:  17.4
      thresh= 4.248E-07 alpha_mix =  0.700 |ddv_scf|^2 =  4.887E-13

     Pert. #  1: Fermi energy shift (Ry) =     2.0214E-03     0.0000E+00

      iter #   6 total cpu time :  3916.7 secs   av.it.:  17.8
      thresh= 6.991E-08 alpha_mix =  0.700 |ddv_scf|^2 =  7.415E-14

     Pert. #  1: Fermi energy shift (Ry) =     2.0197E-03     0.0000E+00

      iter #   7 total cpu time :  3939.1 secs   av.it.:  17.5
      thresh= 2.723E-08 alpha_mix =  0.700 |ddv_scf|^2 =  7.823E-15

     End of self-consistent calculation

     Convergence has been achieved 


     Representation #  23 mode #  23

     Self-consistent Calculation

     Pert. #  1: Fermi energy shift (Ry) =    -3.1480E-03    -5.2940E-23

      iter #   1 total cpu time :  3950.2 secs   av.it.:   4.0
      thresh= 1.000E-02 alpha_mix =  0.700 |ddv_scf|^2 =  3.883E-08

     Pert. #  1: Fermi energy shift (Ry) =    -1.9457E-04    -1.6544E-24

      iter #   2 total cpu time :  3971.2 secs   av.it.:  17.6
      thresh= 1.971E-05 alpha_mix =  0.700 |ddv_scf|^2 =  2.250E-08

     Pert. #  1: Fermi energy shift (Ry) =    -1.8714E-03     4.1359E-25

      iter #   3 total cpu time :  3992.5 secs   av.it.:  16.9
      thresh= 1.500E-05 alpha_mix =  0.700 |ddv_scf|^2 =  2.014E-10

     Pert. #  1: Fermi energy shift (Ry) =    -2.1060E-03    -2.0680E-25

      iter #   4 total cpu time :  4013.7 secs   av.it.:  17.7
      thresh= 1.419E-06 alpha_mix =  0.700 |ddv_scf|^2 =  1.805E-11

     Pert. #  1: Fermi energy shift (Ry) =    -2.0118E-03     6.4623E-27

      iter #   5 total cpu time :  4034.7 secs   av.it.:  17.4
      thresh= 4.248E-07 alpha_mix =  0.700 |ddv_scf|^2 =  4.887E-13

     Pert. #  1: Fermi energy shift (Ry) =    -2.0214E-03     4.0390E-28

      iter #   6 total cpu time :  4056.9 secs   av.it.:  17.8
      thresh= 6.991E-08 alpha_mix =  0.700 |ddv_scf|^2 =  7.415E-14

     Pert. #  1: Fermi energy shift (Ry) =    -2.0197E-03    -3.2312E-27

      iter #   7 total cpu time :  4078.1 secs   av.it.:  17.5
      thresh= 2.723E-08 alpha_mix =  0.700 |ddv_scf|^2 =  7.825E-15

     End of self-consistent calculation

     Convergence has been achieved 


     Representation #  24 mode #  24

     Self-consistent Calculation

     Pert. #  1: Fermi energy shift (Ry) =    -3.1483E-03    -4.2352E-22

      iter #   1 total cpu time :  4089.3 secs   av.it.:   4.0
      thresh= 1.000E-02 alpha_mix =  0.700 |ddv_scf|^2 =  3.883E-08

     Pert. #  1: Fermi energy shift (Ry) =    -1.9502E-04    -1.6544E-24

      iter #   2 total cpu time :  4110.4 secs   av.it.:  17.6
      thresh= 1.971E-05 alpha_mix =  0.700 |ddv_scf|^2 =  2.250E-08

     Pert. #  1: Fermi energy shift (Ry) =    -1.8716E-03    -5.1699E-26

      iter #   3 total cpu time :  4131.9 secs   av.it.:  16.9
      thresh= 1.500E-05 alpha_mix =  0.700 |ddv_scf|^2 =  2.014E-10

     Pert. #  1: Fermi energy shift (Ry) =    -2.1061E-03    -2.0680E-25

      iter #   4 total cpu time :  4153.2 secs   av.it.:  17.7
      thresh= 1.419E-06 alpha_mix =  0.700 |ddv_scf|^2 =  1.805E-11

     Pert. #  1: Fermi energy shift (Ry) =    -2.0118E-03     1.6156E-27

      iter #   5 total cpu time :  4174.3 secs   av.it.:  17.4
      thresh= 4.248E-07 alpha_mix =  0.700 |ddv_scf|^2 =  4.887E-13

     Pert. #  1: Fermi energy shift (Ry) =    -2.0214E-03    -3.2312E-27

      iter #   6 total cpu time :  4196.6 secs   av.it.:  17.8
      thresh= 6.990E-08 alpha_mix =  0.700 |ddv_scf|^2 =  7.416E-14

     Pert. #  1: Fermi energy shift (Ry) =    -2.0197E-03    -1.6156E-27

      iter #   7 total cpu time :  4217.8 secs   av.it.:  17.5
      thresh= 2.723E-08 alpha_mix =  0.700 |ddv_scf|^2 =  7.823E-15

     End of self-consistent calculation

     Convergence has been achieved 


     Representation #  25 mode #  25

     Self-consistent Calculation

     Pert. #  1: Fermi energy shift (Ry) =    -3.1496E-03     0.0000E+00

      iter #   1 total cpu time :  4228.9 secs   av.it.:   4.0
      thresh= 1.000E-02 alpha_mix =  0.700 |ddv_scf|^2 =  3.883E-08

     Pert. #  1: Fermi energy shift (Ry) =    -1.9474E-04     0.0000E+00

      iter #   2 total cpu time :  4250.3 secs   av.it.:  17.6
      thresh= 1.971E-05 alpha_mix =  0.700 |ddv_scf|^2 =  2.250E-08

     Pert. #  1: Fermi energy shift (Ry) =    -1.8715E-03     0.0000E+00

      iter #   3 total cpu time :  4271.5 secs   av.it.:  16.9
      thresh= 1.500E-05 alpha_mix =  0.700 |ddv_scf|^2 =  2.014E-10

     Pert. #  1: Fermi energy shift (Ry) =    -2.1060E-03     0.0000E+00

      iter #   4 total cpu time :  4293.0 secs   av.it.:  17.7
      thresh= 1.419E-06 alpha_mix =  0.700 |ddv_scf|^2 =  1.805E-11

     Pert. #  1: Fermi energy shift (Ry) =    -2.0118E-03     0.0000E+00

      iter #   5 total cpu time :  4313.9 secs   av.it.:  17.4
      thresh= 4.249E-07 alpha_mix =  0.700 |ddv_scf|^2 =  4.886E-13

     Pert. #  1: Fermi energy shift (Ry) =    -2.0214E-03     0.0000E+00

      iter #   6 total cpu time :  4335.8 secs   av.it.:  17.8
      thresh= 6.990E-08 alpha_mix =  0.700 |ddv_scf|^2 =  7.417E-14

     Pert. #  1: Fermi energy shift (Ry) =    -2.0197E-03     0.0000E+00

      iter #   7 total cpu time :  4356.9 secs   av.it.:  17.5
      thresh= 2.723E-08 alpha_mix =  0.700 |ddv_scf|^2 =  7.823E-15

     End of self-consistent calculation

     Convergence has been achieved 


     Representation #  26 mode #  26

     Self-consistent Calculation

     Pert. #  1: Fermi energy shift (Ry) =     3.1499E-03    -1.6941E-21

      iter #   1 total cpu time :  4368.0 secs   av.it.:   4.0
      thresh= 1.000E-02 alpha_mix =  0.700 |ddv_scf|^2 =  3.883E-08

     Pert. #  1: Fermi energy shift (Ry) =     1.9452E-04     1.6544E-24

      iter #   2 total cpu time :  4389.7 secs   av.it.:  17.6
      thresh= 1.971E-05 alpha_mix =  0.700 |ddv_scf|^2 =  2.250E-08

     Pert. #  1: Fermi energy shift (Ry) =     1.8715E-03    -4.1359E-25

      iter #   3 total cpu time :  4410.2 secs   av.it.:  16.9
      thresh= 1.500E-05 alpha_mix =  0.700 |ddv_scf|^2 =  2.014E-10

     Pert. #  1: Fermi energy shift (Ry) =     2.1061E-03    -2.0680E-25

      iter #   4 total cpu time :  4431.6 secs   av.it.:  17.7
      thresh= 1.419E-06 alpha_mix =  0.700 |ddv_scf|^2 =  1.805E-11

     Pert. #  1: Fermi energy shift (Ry) =     2.0118E-03     1.2925E-26

      iter #   5 total cpu time :  4453.1 secs   av.it.:  17.4
      thresh= 4.249E-07 alpha_mix =  0.700 |ddv_scf|^2 =  4.886E-13

     Pert. #  1: Fermi energy shift (Ry) =     2.0214E-03    -6.4623E-27

      iter #   6 total cpu time :  4474.7 secs   av.it.:  17.8
      thresh= 6.990E-08 alpha_mix =  0.700 |ddv_scf|^2 =  7.416E-14

     Pert. #  1: Fermi energy shift (Ry) =     2.0197E-03    -1.6156E-27

      iter #   7 total cpu time :  4496.4 secs   av.it.:  17.5
      thresh= 2.723E-08 alpha_mix =  0.700 |ddv_scf|^2 =  7.825E-15

     End of self-consistent calculation

     Convergence has been achieved 


     Representation #  27 mode #  27

     Self-consistent Calculation

     Pert. #  1: Fermi energy shift (Ry) =    -3.1505E-03    -8.4703E-22

      iter #   1 total cpu time :  4507.8 secs   av.it.:   4.0
      thresh= 1.000E-02 alpha_mix =  0.700 |ddv_scf|^2 =  3.883E-08

     Pert. #  1: Fermi energy shift (Ry) =    -1.9489E-04     4.1359E-25

      iter #   2 total cpu time :  4529.4 secs   av.it.:  17.6
      thresh= 1.971E-05 alpha_mix =  0.700 |ddv_scf|^2 =  2.249E-08

     Pert. #  1: Fermi energy shift (Ry) =    -1.8714E-03    -1.0340E-25

      iter #   3 total cpu time :  4550.7 secs   av.it.:  16.9
      thresh= 1.500E-05 alpha_mix =  0.700 |ddv_scf|^2 =  2.014E-10

     Pert. #  1: Fermi energy shift (Ry) =    -2.1060E-03    -2.0680E-25

      iter #   4 total cpu time :  4572.6 secs   av.it.:  17.7
      thresh= 1.419E-06 alpha_mix =  0.700 |ddv_scf|^2 =  1.805E-11

     Pert. #  1: Fermi energy shift (Ry) =    -2.0118E-03     3.2312E-27

      iter #   5 total cpu time :  4594.1 secs   av.it.:  17.4
      thresh= 4.248E-07 alpha_mix =  0.700 |ddv_scf|^2 =  4.886E-13

     Pert. #  1: Fermi energy shift (Ry) =    -2.0214E-03    -3.2312E-27

      iter #   6 total cpu time :  4615.3 secs   av.it.:  17.8
      thresh= 6.990E-08 alpha_mix =  0.700 |ddv_scf|^2 =  7.417E-14

     Pert. #  1: Fermi energy shift (Ry) =    -2.0197E-03    -1.6156E-27

      iter #   7 total cpu time :  4636.8 secs   av.it.:  17.5
      thresh= 2.723E-08 alpha_mix =  0.700 |ddv_scf|^2 =  7.819E-15

     End of self-consistent calculation

     Convergence has been achieved 


     Representation #  28 mode #  28

     Self-consistent Calculation

     Pert. #  1: Fermi energy shift (Ry) =     3.1514E-03     0.0000E+00

      iter #   1 total cpu time :  4648.0 secs   av.it.:   4.0
      thresh= 1.000E-02 alpha_mix =  0.700 |ddv_scf|^2 =  3.883E-08

     Pert. #  1: Fermi energy shift (Ry) =     1.9458E-04     0.0000E+00

      iter #   2 total cpu time :  4669.0 secs   av.it.:  17.6
      thresh= 1.970E-05 alpha_mix =  0.700 |ddv_scf|^2 =  2.249E-08

     Pert. #  1: Fermi energy shift (Ry) =     1.8714E-03     0.0000E+00

      iter #   3 total cpu time :  4690.0 secs   av.it.:  16.9
      thresh= 1.500E-05 alpha_mix =  0.700 |ddv_scf|^2 =  2.015E-10

     Pert. #  1: Fermi energy shift (Ry) =     2.1060E-03     0.0000E+00

      iter #   4 total cpu time :  4711.8 secs   av.it.:  17.7
      thresh= 1.419E-06 alpha_mix =  0.700 |ddv_scf|^2 =  1.805E-11

     Pert. #  1: Fermi energy shift (Ry) =     2.0118E-03     0.0000E+00

      iter #   5 total cpu time :  4733.6 secs   av.it.:  17.4
      thresh= 4.248E-07 alpha_mix =  0.700 |ddv_scf|^2 =  4.886E-13

     Pert. #  1: Fermi energy shift (Ry) =     2.0214E-03     0.0000E+00

      iter #   6 total cpu time :  4755.9 secs   av.it.:  17.8
      thresh= 6.990E-08 alpha_mix =  0.700 |ddv_scf|^2 =  7.416E-14

     Pert. #  1: Fermi energy shift (Ry) =     2.0197E-03     0.0000E+00

      iter #   7 total cpu time :  4778.2 secs   av.it.:  17.5
      thresh= 2.723E-08 alpha_mix =  0.700 |ddv_scf|^2 =  7.823E-15

     End of self-consistent calculation

     Convergence has been achieved 


     Representation #  29 mode #  29

     Self-consistent Calculation

     Pert. #  1: Fermi energy shift (Ry) =     3.1499E-03    -8.4703E-22

      iter #   1 total cpu time :  4789.6 secs   av.it.:   4.0
      thresh= 1.000E-02 alpha_mix =  0.700 |ddv_scf|^2 =  3.883E-08

     Pert. #  1: Fermi energy shift (Ry) =     1.9460E-04     1.6544E-24

      iter #   2 total cpu time :  4811.0 secs   av.it.:  17.6
      thresh= 1.971E-05 alpha_mix =  0.700 |ddv_scf|^2 =  2.250E-08

     Pert. #  1: Fermi energy shift (Ry) =     1.8715E-03     4.1359E-25

      iter #   3 total cpu time :  4831.3 secs   av.it.:  16.9
      thresh= 1.500E-05 alpha_mix =  0.700 |ddv_scf|^2 =  2.014E-10

     Pert. #  1: Fermi energy shift (Ry) =     2.1060E-03    -2.0680E-25

      iter #   4 total cpu time :  4853.4 secs   av.it.:  17.7
      thresh= 1.419E-06 alpha_mix =  0.700 |ddv_scf|^2 =  1.805E-11

     Pert. #  1: Fermi energy shift (Ry) =     2.0118E-03     6.4623E-27

      iter #   5 total cpu time :  4874.4 secs   av.it.:  17.4
      thresh= 4.248E-07 alpha_mix =  0.700 |ddv_scf|^2 =  4.887E-13

     Pert. #  1: Fermi energy shift (Ry) =     2.0214E-03    -3.2312E-27

      iter #   6 total cpu time :  4895.7 secs   av.it.:  17.8
      thresh= 6.990E-08 alpha_mix =  0.700 |ddv_scf|^2 =  7.416E-14

     Pert. #  1: Fermi energy shift (Ry) =     2.0197E-03    -3.2312E-27

      iter #   7 total cpu time :  4917.0 secs   av.it.:  17.4
      thresh= 2.723E-08 alpha_mix =  0.700 |ddv_scf|^2 =  7.824E-15

     End of self-consistent calculation

     Convergence has been achieved 


     Representation #  30 mode #  30

     Self-consistent Calculation

     Pert. #  1: Fermi energy shift (Ry) =    -3.1498E-03    -8.4703E-22

      iter #   1 total cpu time :  4928.1 secs   av.it.:   4.0
      thresh= 1.000E-02 alpha_mix =  0.700 |ddv_scf|^2 =  3.883E-08

     Pert. #  1: Fermi energy shift (Ry) =    -1.9472E-04     8.2718E-25

      iter #   2 total cpu time :  4949.1 secs   av.it.:  17.6
      thresh= 1.971E-05 alpha_mix =  0.700 |ddv_scf|^2 =  2.250E-08

     Pert. #  1: Fermi energy shift (Ry) =    -1.8715E-03    -5.1699E-26

      iter #   3 total cpu time :  4969.2 secs   av.it.:  16.9
      thresh= 1.500E-05 alpha_mix =  0.700 |ddv_scf|^2 =  2.014E-10

     Pert. #  1: Fermi energy shift (Ry) =    -2.1061E-03    -1.0340E-25

      iter #   4 total cpu time :  4990.2 secs   av.it.:  17.7
      thresh= 1.419E-06 alpha_mix =  0.700 |ddv_scf|^2 =  1.805E-11

     Pert. #  1: Fermi energy shift (Ry) =    -2.0118E-03     3.2312E-27

      iter #   5 total cpu time :  5012.9 secs   av.it.:  17.4
      thresh= 4.249E-07 alpha_mix =  0.700 |ddv_scf|^2 =  4.886E-13

     Pert. #  1: Fermi energy shift (Ry) =    -2.0214E-03    -8.0779E-28

      iter #   6 total cpu time :  5035.6 secs   av.it.:  17.8
      thresh= 6.990E-08 alpha_mix =  0.700 |ddv_scf|^2 =  7.417E-14

     Pert. #  1: Fermi energy shift (Ry) =    -2.0197E-03    -1.6156E-27

      iter #   7 total cpu time :  5056.4 secs   av.it.:  17.5
      thresh= 2.723E-08 alpha_mix =  0.700 |ddv_scf|^2 =  7.822E-15

     End of self-consistent calculation

     Convergence has been achieved 


     Representation #  31 mode #  31

     Self-consistent Calculation

     Pert. #  1: Fermi energy shift (Ry) =     3.1498E-03     0.0000E+00

      iter #   1 total cpu time :  5067.5 secs   av.it.:   4.0
      thresh= 1.000E-02 alpha_mix =  0.700 |ddv_scf|^2 =  3.883E-08

     Pert. #  1: Fermi energy shift (Ry) =     1.9471E-04     0.0000E+00

      iter #   2 total cpu time :  5088.6 secs   av.it.:  17.6
      thresh= 1.971E-05 alpha_mix =  0.700 |ddv_scf|^2 =  2.250E-08

     Pert. #  1: Fermi energy shift (Ry) =     1.8715E-03     0.0000E+00

      iter #   3 total cpu time :  5109.0 secs   av.it.:  16.9
      thresh= 1.500E-05 alpha_mix =  0.700 |ddv_scf|^2 =  2.014E-10

     Pert. #  1: Fermi energy shift (Ry) =     2.1060E-03     0.0000E+00

      iter #   4 total cpu time :  5130.2 secs   av.it.:  17.7
      thresh= 1.419E-06 alpha_mix =  0.700 |ddv_scf|^2 =  1.805E-11

     Pert. #  1: Fermi energy shift (Ry) =     2.0118E-03     0.0000E+00

      iter #   5 total cpu time :  5151.2 secs   av.it.:  17.4
      thresh= 4.249E-07 alpha_mix =  0.700 |ddv_scf|^2 =  4.886E-13

     Pert. #  1: Fermi energy shift (Ry) =     2.0214E-03     0.0000E+00

      iter #   6 total cpu time :  5172.5 secs   av.it.:  17.8
      thresh= 6.990E-08 alpha_mix =  0.700 |ddv_scf|^2 =  7.416E-14

     Pert. #  1: Fermi energy shift (Ry) =     2.0197E-03     0.0000E+00

      iter #   7 total cpu time :  5193.3 secs   av.it.:  17.5
      thresh= 2.723E-08 alpha_mix =  0.700 |ddv_scf|^2 =  7.823E-15

     End of self-consistent calculation

     Convergence has been achieved 


     Representation #  32 mode #  32

     Self-consistent Calculation

     Pert. #  1: Fermi energy shift (Ry) =    -3.1497E-03    -1.6941E-21

      iter #   1 total cpu time :  5204.4 secs   av.it.:   4.0
      thresh= 1.000E-02 alpha_mix =  0.700 |ddv_scf|^2 =  3.883E-08

     Pert. #  1: Fermi energy shift (Ry) =    -1.9460E-04     8.2718E-25

      iter #   2 total cpu time :  5225.5 secs   av.it.:  17.6
      thresh= 1.971E-05 alpha_mix =  0.700 |ddv_scf|^2 =  2.250E-08

     Pert. #  1: Fermi energy shift (Ry) =    -1.8715E-03    -4.1359E-25

      iter #   3 total cpu time :  5245.9 secs   av.it.:  16.9
      thresh= 1.500E-05 alpha_mix =  0.700 |ddv_scf|^2 =  2.014E-10

     Pert. #  1: Fermi energy shift (Ry) =    -2.1061E-03    -2.0680E-25

      iter #   4 total cpu time :  5267.1 secs   av.it.:  17.7
      thresh= 1.419E-06 alpha_mix =  0.700 |ddv_scf|^2 =  1.805E-11

     Pert. #  1: Fermi energy shift (Ry) =    -2.0118E-03     1.2925E-26

      iter #   5 total cpu time :  5288.0 secs   av.it.:  17.4
      thresh= 4.249E-07 alpha_mix =  0.700 |ddv_scf|^2 =  4.886E-13

     Pert. #  1: Fermi energy shift (Ry) =    -2.0214E-03    -6.4623E-27

      iter #   6 total cpu time :  5309.4 secs   av.it.:  17.8
      thresh= 6.990E-08 alpha_mix =  0.700 |ddv_scf|^2 =  7.416E-14

     Pert. #  1: Fermi energy shift (Ry) =    -2.0197E-03    -3.2312E-27

      iter #   7 total cpu time :  5330.3 secs   av.it.:  17.5
      thresh= 2.723E-08 alpha_mix =  0.700 |ddv_scf|^2 =  7.825E-15

     End of self-consistent calculation

     Convergence has been achieved 


     Representation #  33 mode #  33

     Self-consistent Calculation

     Pert. #  1: Fermi energy shift (Ry) =     3.1500E-03    -1.6941E-21

      iter #   1 total cpu time :  5341.3 secs   av.it.:   4.0
      thresh= 1.000E-02 alpha_mix =  0.700 |ddv_scf|^2 =  3.883E-08

     Pert. #  1: Fermi energy shift (Ry) =     1.9482E-04     4.1359E-25

      iter #   2 total cpu time :  5362.4 secs   av.it.:  17.6
      thresh= 1.971E-05 alpha_mix =  0.700 |ddv_scf|^2 =  2.249E-08

     Pert. #  1: Fermi energy shift (Ry) =     1.8714E-03    -1.0340E-25

      iter #   3 total cpu time :  5382.7 secs   av.it.:  16.9
      thresh= 1.500E-05 alpha_mix =  0.700 |ddv_scf|^2 =  2.014E-10

     Pert. #  1: Fermi energy shift (Ry) =     2.1060E-03    -2.0680E-25

      iter #   4 total cpu time :  5403.8 secs   av.it.:  17.7
      thresh= 1.419E-06 alpha_mix =  0.700 |ddv_scf|^2 =  1.805E-11

     Pert. #  1: Fermi energy shift (Ry) =     2.0118E-03     3.2312E-27

      iter #   5 total cpu time :  5424.7 secs   av.it.:  17.4
      thresh= 4.248E-07 alpha_mix =  0.700 |ddv_scf|^2 =  4.886E-13

     Pert. #  1: Fermi energy shift (Ry) =     2.0214E-03    -3.2312E-27

      iter #   6 total cpu time :  5446.1 secs   av.it.:  17.8
      thresh= 6.990E-08 alpha_mix =  0.700 |ddv_scf|^2 =  7.417E-14

     Pert. #  1: Fermi energy shift (Ry) =     2.0197E-03    -1.6156E-27

      iter #   7 total cpu time :  5466.9 secs   av.it.:  17.5
      thresh= 2.723E-08 alpha_mix =  0.700 |ddv_scf|^2 =  7.820E-15

     End of self-consistent calculation

     Convergence has been achieved 


     Representation #  34 mode #  34

     Self-consistent Calculation

     Pert. #  1: Fermi energy shift (Ry) =    -3.1505E-03     0.0000E+00

      iter #   1 total cpu time :  5478.0 secs   av.it.:   4.0
      thresh= 1.000E-02 alpha_mix =  0.700 |ddv_scf|^2 =  3.883E-08

     Pert. #  1: Fermi energy shift (Ry) =    -1.9467E-04     0.0000E+00

      iter #   2 total cpu time :  5499.0 secs   av.it.:  17.6
      thresh= 1.971E-05 alpha_mix =  0.700 |ddv_scf|^2 =  2.249E-08

     Pert. #  1: Fermi energy shift (Ry) =    -1.8714E-03     0.0000E+00

      iter #   3 total cpu time :  5519.3 secs   av.it.:  16.9
      thresh= 1.500E-05 alpha_mix =  0.700 |ddv_scf|^2 =  2.015E-10

     Pert. #  1: Fermi energy shift (Ry) =    -2.1060E-03     0.0000E+00

      iter #   4 total cpu time :  5540.5 secs   av.it.:  17.7
      thresh= 1.419E-06 alpha_mix =  0.700 |ddv_scf|^2 =  1.805E-11

     Pert. #  1: Fermi energy shift (Ry) =    -2.0118E-03     0.0000E+00

      iter #   5 total cpu time :  5561.4 secs   av.it.:  17.4
      thresh= 4.248E-07 alpha_mix =  0.700 |ddv_scf|^2 =  4.887E-13

     Pert. #  1: Fermi energy shift (Ry) =    -2.0214E-03     0.0000E+00

      iter #   6 total cpu time :  5582.7 secs   av.it.:  17.8
      thresh= 6.991E-08 alpha_mix =  0.700 |ddv_scf|^2 =  7.415E-14

     Pert. #  1: Fermi energy shift (Ry) =    -2.0197E-03     0.0000E+00

      iter #   7 total cpu time :  5603.5 secs   av.it.:  17.5
      thresh= 2.723E-08 alpha_mix =  0.700 |ddv_scf|^2 =  7.823E-15

     End of self-consistent calculation

     Convergence has been achieved 


     Representation #  35 mode #  35

     Self-consistent Calculation

     Pert. #  1: Fermi energy shift (Ry) =     3.1490E-03    -1.0588E-22

      iter #   1 total cpu time :  5614.6 secs   av.it.:   4.0
      thresh= 1.000E-02 alpha_mix =  0.700 |ddv_scf|^2 =  3.883E-08

     Pert. #  1: Fermi energy shift (Ry) =     1.9454E-04    -1.6544E-24

      iter #   2 total cpu time :  5635.4 secs   av.it.:  17.6
      thresh= 1.971E-05 alpha_mix =  0.700 |ddv_scf|^2 =  2.250E-08

     Pert. #  1: Fermi energy shift (Ry) =     1.8714E-03     4.1359E-25

      iter #   3 total cpu time :  5655.6 secs   av.it.:  16.9
      thresh= 1.500E-05 alpha_mix =  0.700 |ddv_scf|^2 =  2.014E-10

     Pert. #  1: Fermi energy shift (Ry) =     2.1060E-03    -2.0680E-25

      iter #   4 total cpu time :  5676.7 secs   av.it.:  17.7
      thresh= 1.419E-06 alpha_mix =  0.700 |ddv_scf|^2 =  1.805E-11

     Pert. #  1: Fermi energy shift (Ry) =     2.0118E-03     6.4623E-27

      iter #   5 total cpu time :  5697.5 secs   av.it.:  17.4
      thresh= 4.248E-07 alpha_mix =  0.700 |ddv_scf|^2 =  4.887E-13

     Pert. #  1: Fermi energy shift (Ry) =     2.0214E-03    -1.0097E-28

      iter #   6 total cpu time :  5718.7 secs   av.it.:  17.8
[...]
      thresh= 3.044E-07 alpha_mix =  0.700 |ddv_scf|^2 =  9.062E-13

      iter #   8 total cpu time : 64068.4 secs   av.it.:  17.7
      thresh= 9.520E-08 alpha_mix =  0.700 |ddv_scf|^2 =  1.486E-13

      iter #   9 total cpu time : 64089.8 secs   av.it.:  17.5
      thresh= 3.855E-08 alpha_mix =  0.700 |ddv_scf|^2 =  1.778E-13

      iter #  10 total cpu time : 64109.1 secs   av.it.:  15.5
      thresh= 4.217E-08 alpha_mix =  0.700 |ddv_scf|^2 =  1.304E-13

      iter #  11 total cpu time : 64128.1 secs   av.it.:  15.2
      thresh= 3.612E-08 alpha_mix =  0.700 |ddv_scf|^2 =  7.117E-14

      iter #  12 total cpu time : 64146.5 secs   av.it.:  14.6
      thresh= 2.668E-08 alpha_mix =  0.700 |ddv_scf|^2 =  3.564E-15

     End of self-consistent calculation

     Convergence has been achieved 


     Representation #  85 mode #  85

     Self-consistent Calculation

      iter #   1 total cpu time : 64157.2 secs   av.it.:   4.3
      thresh= 1.000E-02 alpha_mix =  0.700 |ddv_scf|^2 =  4.207E-07

      iter #   2 total cpu time : 64178.9 secs   av.it.:  17.5
      thresh= 6.486E-05 alpha_mix =  0.700 |ddv_scf|^2 =  8.031E-06

      iter #   3 total cpu time : 64196.5 secs   av.it.:  13.5
      thresh= 2.834E-04 alpha_mix =  0.700 |ddv_scf|^2 =  2.044E-08

      iter #   4 total cpu time : 64217.2 secs   av.it.:  16.7
      thresh= 1.430E-05 alpha_mix =  0.700 |ddv_scf|^2 =  1.391E-08

      iter #   5 total cpu time : 64235.3 secs   av.it.:  14.2
      thresh= 1.179E-05 alpha_mix =  0.700 |ddv_scf|^2 =  9.260E-10

      iter #   6 total cpu time : 64254.7 secs   av.it.:  15.6
      thresh= 3.043E-06 alpha_mix =  0.700 |ddv_scf|^2 =  6.277E-12

      iter #   7 total cpu time : 64276.3 secs   av.it.:  17.9
      thresh= 2.505E-07 alpha_mix =  0.700 |ddv_scf|^2 =  5.878E-13

      iter #   8 total cpu time : 64298.2 secs   av.it.:  18.0
      thresh= 7.667E-08 alpha_mix =  0.700 |ddv_scf|^2 =  3.680E-13

      iter #   9 total cpu time : 64319.0 secs   av.it.:  16.8
      thresh= 6.066E-08 alpha_mix =  0.700 |ddv_scf|^2 =  1.325E-12

      iter #  10 total cpu time : 64336.9 secs   av.it.:  14.2
      thresh= 1.151E-07 alpha_mix =  0.700 |ddv_scf|^2 =  5.162E-14

      iter #  11 total cpu time : 64357.9 secs   av.it.:  16.8
      thresh= 2.272E-08 alpha_mix =  0.700 |ddv_scf|^2 =  2.595E-13

      iter #  12 total cpu time : 64375.7 secs   av.it.:  14.1
      thresh= 5.094E-08 alpha_mix =  0.700 |ddv_scf|^2 =  2.565E-15

     End of self-consistent calculation

     Convergence has been achieved 


     Representation #  86 mode #  86

     Self-consistent Calculation

      iter #   1 total cpu time : 64386.5 secs   av.it.:   4.4
      thresh= 1.000E-02 alpha_mix =  0.700 |ddv_scf|^2 =  4.761E-07

      iter #   2 total cpu time : 64408.3 secs   av.it.:  17.5
      thresh= 6.900E-05 alpha_mix =  0.700 |ddv_scf|^2 =  9.242E-06

      iter #   3 total cpu time : 64425.8 secs   av.it.:  13.6
      thresh= 3.040E-04 alpha_mix =  0.700 |ddv_scf|^2 =  2.110E-08

      iter #   4 total cpu time : 64446.6 secs   av.it.:  16.8
      thresh= 1.453E-05 alpha_mix =  0.700 |ddv_scf|^2 =  1.757E-08

      iter #   5 total cpu time : 64464.8 secs   av.it.:  14.4
      thresh= 1.325E-05 alpha_mix =  0.700 |ddv_scf|^2 =  8.846E-10

      iter #   6 total cpu time : 64484.4 secs   av.it.:  15.8
      thresh= 2.974E-06 alpha_mix =  0.700 |ddv_scf|^2 =  6.273E-12

      iter #   7 total cpu time : 64506.2 secs   av.it.:  17.9
      thresh= 2.505E-07 alpha_mix =  0.700 |ddv_scf|^2 =  7.639E-13

      iter #   8 total cpu time : 64527.8 secs   av.it.:  17.8
      thresh= 8.740E-08 alpha_mix =  0.700 |ddv_scf|^2 =  1.437E-13

      iter #   9 total cpu time : 64549.1 secs   av.it.:  17.5
      thresh= 3.791E-08 alpha_mix =  0.700 |ddv_scf|^2 =  2.779E-14

      iter #  10 total cpu time : 64570.4 secs   av.it.:  17.4
      thresh= 1.667E-08 alpha_mix =  0.700 |ddv_scf|^2 =  1.484E-13

      iter #  11 total cpu time : 64588.4 secs   av.it.:  14.2
      thresh= 3.852E-08 alpha_mix =  0.700 |ddv_scf|^2 =  1.894E-14

      iter #  12 total cpu time : 64607.9 secs   av.it.:  15.6
      thresh= 1.376E-08 alpha_mix =  0.700 |ddv_scf|^2 =  1.488E-14

      iter #  13 total cpu time : 64626.4 secs   av.it.:  14.9
      thresh= 1.220E-08 alpha_mix =  0.700 |ddv_scf|^2 =  4.774E-16

     End of self-consistent calculation

     Convergence has been achieved 


     Representation #  87 mode #  87

     Self-consistent Calculation

      iter #   1 total cpu time : 64637.1 secs   av.it.:   4.4
      thresh= 1.000E-02 alpha_mix =  0.700 |ddv_scf|^2 =  4.684E-07

      iter #   2 total cpu time : 64658.6 secs   av.it.:  17.4
      thresh= 6.844E-05 alpha_mix =  0.700 |ddv_scf|^2 =  9.225E-06

      iter #   3 total cpu time : 64676.0 secs   av.it.:  13.5
      thresh= 3.037E-04 alpha_mix =  0.700 |ddv_scf|^2 =  1.650E-08

      iter #   4 total cpu time : 64697.0 secs   av.it.:  17.2
      thresh= 1.284E-05 alpha_mix =  0.700 |ddv_scf|^2 =  1.204E-08

      iter #   5 total cpu time : 64715.2 secs   av.it.:  14.2
      thresh= 1.097E-05 alpha_mix =  0.700 |ddv_scf|^2 =  8.951E-10

      iter #   6 total cpu time : 64734.8 secs   av.it.:  15.9
      thresh= 2.992E-06 alpha_mix =  0.700 |ddv_scf|^2 =  9.266E-12

      iter #   7 total cpu time : 64756.5 secs   av.it.:  17.9
      thresh= 3.044E-07 alpha_mix =  0.700 |ddv_scf|^2 =  9.062E-13

      iter #   8 total cpu time : 64778.1 secs   av.it.:  17.7
      thresh= 9.519E-08 alpha_mix =  0.700 |ddv_scf|^2 =  1.486E-13

      iter #   9 total cpu time : 64799.6 secs   av.it.:  17.5
      thresh= 3.855E-08 alpha_mix =  0.700 |ddv_scf|^2 =  1.781E-13

      iter #  10 total cpu time : 64818.9 secs   av.it.:  15.5
      thresh= 4.220E-08 alpha_mix =  0.700 |ddv_scf|^2 =  1.303E-13

      iter #  11 total cpu time : 64837.9 secs   av.it.:  15.2
      thresh= 3.610E-08 alpha_mix =  0.700 |ddv_scf|^2 =  7.125E-14

      iter #  12 total cpu time : 64856.2 secs   av.it.:  14.6
      thresh= 2.669E-08 alpha_mix =  0.700 |ddv_scf|^2 =  3.559E-15

     End of self-consistent calculation

     Convergence has been achieved 


     Representation #  88 mode #  88

     Self-consistent Calculation

      iter #   1 total cpu time : 64866.9 secs   av.it.:   4.4
      thresh= 1.000E-02 alpha_mix =  0.700 |ddv_scf|^2 =  4.762E-07

      iter #   2 total cpu time : 64888.6 secs   av.it.:  17.5
      thresh= 6.900E-05 alpha_mix =  0.700 |ddv_scf|^2 =  9.244E-06

      iter #   3 total cpu time : 64906.2 secs   av.it.:  13.6
      thresh= 3.040E-04 alpha_mix =  0.700 |ddv_scf|^2 =  2.110E-08

      iter #   4 total cpu time : 64927.0 secs   av.it.:  16.8
      thresh= 1.452E-05 alpha_mix =  0.700 |ddv_scf|^2 =  1.758E-08

      iter #   5 total cpu time : 64945.2 secs   av.it.:  14.4
      thresh= 1.326E-05 alpha_mix =  0.700 |ddv_scf|^2 =  8.852E-10

      iter #   6 total cpu time : 64964.8 secs   av.it.:  15.8
      thresh= 2.975E-06 alpha_mix =  0.700 |ddv_scf|^2 =  6.268E-12

      iter #   7 total cpu time : 64986.5 secs   av.it.:  17.9
      thresh= 2.504E-07 alpha_mix =  0.700 |ddv_scf|^2 =  7.639E-13

      iter #   8 total cpu time : 65008.2 secs   av.it.:  17.8
      thresh= 8.740E-08 alpha_mix =  0.700 |ddv_scf|^2 =  1.437E-13

      iter #   9 total cpu time : 65029.4 secs   av.it.:  17.5
      thresh= 3.790E-08 alpha_mix =  0.700 |ddv_scf|^2 =  2.714E-14

      iter #  10 total cpu time : 65050.7 secs   av.it.:  17.4
      thresh= 1.647E-08 alpha_mix =  0.700 |ddv_scf|^2 =  1.452E-13

      iter #  11 total cpu time : 65068.8 secs   av.it.:  14.2
      thresh= 3.811E-08 alpha_mix =  0.700 |ddv_scf|^2 =  1.882E-14

      iter #  12 total cpu time : 65088.2 secs   av.it.:  15.6
      thresh= 1.372E-08 alpha_mix =  0.700 |ddv_scf|^2 =  1.489E-14

      iter #  13 total cpu time : 65106.8 secs   av.it.:  14.8
      thresh= 1.220E-08 alpha_mix =  0.700 |ddv_scf|^2 =  4.863E-16

     End of self-consistent calculation

     Convergence has been achieved 


     Representation #  89 mode #  89

     Self-consistent Calculation

      iter #   1 total cpu time : 65117.5 secs   av.it.:   4.4
      thresh= 1.000E-02 alpha_mix =  0.700 |ddv_scf|^2 =  4.684E-07

      iter #   2 total cpu time : 65139.1 secs   av.it.:  17.4
      thresh= 6.844E-05 alpha_mix =  0.700 |ddv_scf|^2 =  9.226E-06

      iter #   3 total cpu time : 65156.5 secs   av.it.:  13.5
      thresh= 3.037E-04 alpha_mix =  0.700 |ddv_scf|^2 =  1.650E-08

      iter #   4 total cpu time : 65177.6 secs   av.it.:  17.2
      thresh= 1.285E-05 alpha_mix =  0.700 |ddv_scf|^2 =  1.203E-08

      iter #   5 total cpu time : 65195.7 secs   av.it.:  14.2
      thresh= 1.097E-05 alpha_mix =  0.700 |ddv_scf|^2 =  8.953E-10

      iter #   6 total cpu time : 65215.4 secs   av.it.:  15.9
      thresh= 2.992E-06 alpha_mix =  0.700 |ddv_scf|^2 =  9.269E-12

      iter #   7 total cpu time : 65237.0 secs   av.it.:  17.8
      thresh= 3.044E-07 alpha_mix =  0.700 |ddv_scf|^2 =  9.064E-13

      iter #   8 total cpu time : 65258.7 secs   av.it.:  17.7
      thresh= 9.520E-08 alpha_mix =  0.700 |ddv_scf|^2 =  1.487E-13

      iter #   9 total cpu time : 65280.1 secs   av.it.:  17.5
      thresh= 3.856E-08 alpha_mix =  0.700 |ddv_scf|^2 =  1.784E-13

      iter #  10 total cpu time : 65299.4 secs   av.it.:  15.5
      thresh= 4.223E-08 alpha_mix =  0.700 |ddv_scf|^2 =  1.302E-13

      iter #  11 total cpu time : 65318.5 secs   av.it.:  15.2
      thresh= 3.608E-08 alpha_mix =  0.700 |ddv_scf|^2 =  7.126E-14

      iter #  12 total cpu time : 65336.8 secs   av.it.:  14.6
      thresh= 2.669E-08 alpha_mix =  0.700 |ddv_scf|^2 =  3.559E-15

     End of self-consistent calculation

     Convergence has been achieved 


     Representation #  90 mode #  90

     Self-consistent Calculation

      iter #   1 total cpu time : 65347.5 secs   av.it.:   4.3
      thresh= 1.000E-02 alpha_mix =  0.700 |ddv_scf|^2 =  4.208E-07

      iter #   2 total cpu time : 65369.2 secs   av.it.:  17.5
      thresh= 6.487E-05 alpha_mix =  0.700 |ddv_scf|^2 =  8.034E-06

      iter #   3 total cpu time : 65386.7 secs   av.it.:  13.5
      thresh= 2.834E-04 alpha_mix =  0.700 |ddv_scf|^2 =  2.043E-08

      iter #   4 total cpu time : 65407.4 secs   av.it.:  16.7
      thresh= 1.429E-05 alpha_mix =  0.700 |ddv_scf|^2 =  1.392E-08

      iter #   5 total cpu time : 65425.5 secs   av.it.:  14.2
      thresh= 1.180E-05 alpha_mix =  0.700 |ddv_scf|^2 =  9.263E-10

      iter #   6 total cpu time : 65444.9 secs   av.it.:  15.6
      thresh= 3.044E-06 alpha_mix =  0.700 |ddv_scf|^2 =  6.276E-12

      iter #   7 total cpu time : 65466.5 secs   av.it.:  17.9
      thresh= 2.505E-07 alpha_mix =  0.700 |ddv_scf|^2 =  5.877E-13

      iter #   8 total cpu time : 65488.4 secs   av.it.:  18.0
      thresh= 7.666E-08 alpha_mix =  0.700 |ddv_scf|^2 =  3.689E-13

      iter #   9 total cpu time : 65509.2 secs   av.it.:  16.8
      thresh= 6.074E-08 alpha_mix =  0.700 |ddv_scf|^2 =  1.326E-12

      iter #  10 total cpu time : 65527.1 secs   av.it.:  14.2
      thresh= 1.152E-07 alpha_mix =  0.700 |ddv_scf|^2 =  5.157E-14

      iter #  11 total cpu time : 65548.0 secs   av.it.:  16.9
      thresh= 2.271E-08 alpha_mix =  0.700 |ddv_scf|^2 =  2.593E-13

      iter #  12 total cpu time : 65565.9 secs   av.it.:  14.1
      thresh= 5.092E-08 alpha_mix =  0.700 |ddv_scf|^2 =  2.564E-15

     End of self-consistent calculation

     Convergence has been achieved 


     Representation #  91 mode #  91

     Self-consistent Calculation

      iter #   1 total cpu time : 65576.6 secs   av.it.:   4.4
      thresh= 1.000E-02 alpha_mix =  0.700 |ddv_scf|^2 =  4.594E-07

      iter #   2 total cpu time : 65598.4 secs   av.it.:  17.7
      thresh= 6.778E-05 alpha_mix =  0.700 |ddv_scf|^2 =  8.343E-06

      iter #   3 total cpu time : 65616.2 secs   av.it.:  13.7
      thresh= 2.888E-04 alpha_mix =  0.700 |ddv_scf|^2 =  2.749E-08

      iter #   4 total cpu time : 65636.7 secs   av.it.:  16.6
      thresh= 1.658E-05 alpha_mix =  0.700 |ddv_scf|^2 =  2.893E-08

      iter #   5 total cpu time : 65654.8 secs   av.it.:  14.4
      thresh= 1.701E-05 alpha_mix =  0.700 |ddv_scf|^2 =  4.380E-10

      iter #   6 total cpu time : 65675.1 secs   av.it.:  16.5
      thresh= 2.093E-06 alpha_mix =  0.700 |ddv_scf|^2 =  7.724E-12

      iter #   7 total cpu time : 65696.5 secs   av.it.:  17.7
      thresh= 2.779E-07 alpha_mix =  0.700 |ddv_scf|^2 =  5.922E-13

      iter #   8 total cpu time : 65718.4 secs   av.it.:  17.9
      thresh= 7.696E-08 alpha_mix =  0.700 |ddv_scf|^2 =  3.884E-13

      iter #   9 total cpu time : 65739.1 secs   av.it.:  16.7
      thresh= 6.233E-08 alpha_mix =  0.700 |ddv_scf|^2 =  1.124E-12

      iter #  10 total cpu time : 65757.2 secs   av.it.:  14.5
      thresh= 1.060E-07 alpha_mix =  0.700 |ddv_scf|^2 =  9.974E-14

      iter #  11 total cpu time : 65777.1 secs   av.it.:  16.0
      thresh= 3.158E-08 alpha_mix =  0.700 |ddv_scf|^2 =  1.618E-13

      iter #  12 total cpu time : 65795.6 secs   av.it.:  14.8
      thresh= 4.022E-08 alpha_mix =  0.700 |ddv_scf|^2 =  2.189E-15

     End of self-consistent calculation

     Convergence has been achieved 


     Representation #  92 mode #  92

     Self-consistent Calculation

      iter #   1 total cpu time : 65806.3 secs   av.it.:   4.3
      thresh= 1.000E-02 alpha_mix =  0.700 |ddv_scf|^2 =  4.119E-07

      iter #   2 total cpu time : 65828.0 secs   av.it.:  17.4
      thresh= 6.418E-05 alpha_mix =  0.700 |ddv_scf|^2 =  7.463E-06

      iter #   3 total cpu time : 65845.7 secs   av.it.:  13.7
      thresh= 2.732E-04 alpha_mix =  0.700 |ddv_scf|^2 =  2.463E-08

      iter #   4 total cpu time : 65866.3 secs   av.it.:  16.5
      thresh= 1.569E-05 alpha_mix =  0.700 |ddv_scf|^2 =  2.668E-08

      iter #   5 total cpu time : 65884.5 secs   av.it.:  14.2
      thresh= 1.633E-05 alpha_mix =  0.700 |ddv_scf|^2 =  4.169E-10

      iter #   6 total cpu time : 65904.8 secs   av.it.:  16.4
      thresh= 2.042E-06 alpha_mix =  0.700 |ddv_scf|^2 =  9.669E-12

      iter #   7 total cpu time : 65926.5 secs   av.it.:  17.6
      thresh= 3.110E-07 alpha_mix =  0.700 |ddv_scf|^2 =  1.073E-12

      iter #   8 total cpu time : 65947.8 secs   av.it.:  17.4
      thresh= 1.036E-07 alpha_mix =  0.700 |ddv_scf|^2 =  1.380E-13

      iter #   9 total cpu time : 65969.5 secs   av.it.:  17.6
      thresh= 3.714E-08 alpha_mix =  0.700 |ddv_scf|^2 =  8.202E-13

      iter #  10 total cpu time : 65987.7 secs   av.it.:  14.3
      thresh= 9.056E-08 alpha_mix =  0.700 |ddv_scf|^2 =  8.971E-14

      iter #  11 total cpu time : 66007.2 secs   av.it.:  15.5
      thresh= 2.995E-08 alpha_mix =  0.700 |ddv_scf|^2 =  8.672E-14

      iter #  12 total cpu time : 66026.0 secs   av.it.:  15.0
      thresh= 2.945E-08 alpha_mix =  0.700 |ddv_scf|^2 =  1.567E-15

     End of self-consistent calculation

     Convergence has been achieved 


     Representation #  93 mode #  93

     Self-consistent Calculation

      iter #   1 total cpu time : 66036.8 secs   av.it.:   4.4
      thresh= 1.000E-02 alpha_mix =  0.700 |ddv_scf|^2 =  4.594E-07

      iter #   2 total cpu time : 66058.6 secs   av.it.:  17.7
      thresh= 6.778E-05 alpha_mix =  0.700 |ddv_scf|^2 =  8.343E-06

      iter #   3 total cpu time : 66076.3 secs   av.it.:  13.7
      thresh= 2.888E-04 alpha_mix =  0.700 |ddv_scf|^2 =  2.749E-08

      iter #   4 total cpu time : 66096.8 secs   av.it.:  16.6
      thresh= 1.658E-05 alpha_mix =  0.700 |ddv_scf|^2 =  2.893E-08

      iter #   5 total cpu time : 66115.0 secs   av.it.:  14.4
      thresh= 1.701E-05 alpha_mix =  0.700 |ddv_scf|^2 =  4.378E-10

      iter #   6 total cpu time : 66135.2 secs   av.it.:  16.5
      thresh= 2.092E-06 alpha_mix =  0.700 |ddv_scf|^2 =  7.724E-12

      iter #   7 total cpu time : 66156.6 secs   av.it.:  17.7
      thresh= 2.779E-07 alpha_mix =  0.700 |ddv_scf|^2 =  5.923E-13

      iter #   8 total cpu time : 66178.4 secs   av.it.:  17.9
      thresh= 7.696E-08 alpha_mix =  0.700 |ddv_scf|^2 =  3.886E-13

      iter #   9 total cpu time : 66199.0 secs   av.it.:  16.7
      thresh= 6.234E-08 alpha_mix =  0.700 |ddv_scf|^2 =  1.123E-12

      iter #  10 total cpu time : 66217.2 secs   av.it.:  14.5
      thresh= 1.060E-07 alpha_mix =  0.700 |ddv_scf|^2 =  9.979E-14

      iter #  11 total cpu time : 66237.1 secs   av.it.:  16.0
      thresh= 3.159E-08 alpha_mix =  0.700 |ddv_scf|^2 =  1.618E-13

      iter #  12 total cpu time : 66255.6 secs   av.it.:  14.8
      thresh= 4.022E-08 alpha_mix =  0.700 |ddv_scf|^2 =  2.189E-15

     End of self-consistent calculation

     Convergence has been achieved 


     Representation #  94 mode #  94

     Self-consistent Calculation

      iter #   1 total cpu time : 66266.4 secs   av.it.:   4.4
      thresh= 1.000E-02 alpha_mix =  0.700 |ddv_scf|^2 =  4.762E-07

      iter #   2 total cpu time : 66288.1 secs   av.it.:  17.5
      thresh= 6.900E-05 alpha_mix =  0.700 |ddv_scf|^2 =  9.244E-06

      iter #   3 total cpu time : 66305.6 secs   av.it.:  13.6
      thresh= 3.040E-04 alpha_mix =  0.700 |ddv_scf|^2 =  2.110E-08

      iter #   4 total cpu time : 66326.4 secs   av.it.:  16.8
      thresh= 1.452E-05 alpha_mix =  0.700 |ddv_scf|^2 =  1.758E-08

      iter #   5 total cpu time : 66344.5 secs   av.it.:  14.4
      thresh= 1.326E-05 alpha_mix =  0.700 |ddv_scf|^2 =  8.852E-10

      iter #   6 total cpu time : 66364.1 secs   av.it.:  15.8
      thresh= 2.975E-06 alpha_mix =  0.700 |ddv_scf|^2 =  6.268E-12

      iter #   7 total cpu time : 66385.8 secs   av.it.:  17.9
      thresh= 2.504E-07 alpha_mix =  0.700 |ddv_scf|^2 =  7.639E-13

      iter #   8 total cpu time : 66407.4 secs   av.it.:  17.8
      thresh= 8.740E-08 alpha_mix =  0.700 |ddv_scf|^2 =  1.437E-13

      iter #   9 total cpu time : 66428.6 secs   av.it.:  17.5
      thresh= 3.790E-08 alpha_mix =  0.700 |ddv_scf|^2 =  2.711E-14

      iter #  10 total cpu time : 66450.0 secs   av.it.:  17.4
      thresh= 1.647E-08 alpha_mix =  0.700 |ddv_scf|^2 =  1.450E-13

      iter #  11 total cpu time : 66468.0 secs   av.it.:  14.2
      thresh= 3.808E-08 alpha_mix =  0.700 |ddv_scf|^2 =  1.881E-14

      iter #  12 total cpu time : 66487.5 secs   av.it.:  15.6
      thresh= 1.371E-08 alpha_mix =  0.700 |ddv_scf|^2 =  1.489E-14

      iter #  13 total cpu time : 66506.0 secs   av.it.:  14.8
      thresh= 1.220E-08 alpha_mix =  0.700 |ddv_scf|^2 =  4.867E-16

     End of self-consistent calculation

     Convergence has been achieved 


     Representation #  95 mode #  95

     Self-consistent Calculation

      iter #   1 total cpu time : 66516.8 secs   av.it.:   4.4
      thresh= 1.000E-02 alpha_mix =  0.700 |ddv_scf|^2 =  4.684E-07

      iter #   2 total cpu time : 66538.3 secs   av.it.:  17.4
      thresh= 6.844E-05 alpha_mix =  0.700 |ddv_scf|^2 =  9.225E-06

      iter #   3 total cpu time : 66555.7 secs   av.it.:  13.5
      thresh= 3.037E-04 alpha_mix =  0.700 |ddv_scf|^2 =  1.650E-08

      iter #   4 total cpu time : 66576.7 secs   av.it.:  17.2
      thresh= 1.285E-05 alpha_mix =  0.700 |ddv_scf|^2 =  1.203E-08

      iter #   5 total cpu time : 66594.7 secs   av.it.:  14.2
      thresh= 1.097E-05 alpha_mix =  0.700 |ddv_scf|^2 =  8.953E-10

      iter #   6 total cpu time : 66614.5 secs   av.it.:  15.9
      thresh= 2.992E-06 alpha_mix =  0.700 |ddv_scf|^2 =  9.270E-12

      iter #   7 total cpu time : 66636.2 secs   av.it.:  17.8
      thresh= 3.045E-07 alpha_mix =  0.700 |ddv_scf|^2 =  9.063E-13

      iter #   8 total cpu time : 66657.8 secs   av.it.:  17.7
      thresh= 9.520E-08 alpha_mix =  0.700 |ddv_scf|^2 =  1.485E-13

      iter #   9 total cpu time : 66679.1 secs   av.it.:  17.5
      thresh= 3.854E-08 alpha_mix =  0.700 |ddv_scf|^2 =  1.776E-13

      iter #  10 total cpu time : 66698.5 secs   av.it.:  15.5
      thresh= 4.214E-08 alpha_mix =  0.700 |ddv_scf|^2 =  1.305E-13
