
     Program PWSCF v.7.5 starts on  5Jun2026 at 13:56:50 

     This program is part of the open-source Quantum ESPRESSO suite
     for quantum simulation of materials; please cite
         "P. Giannozzi et al., J. Phys.:Condens. Matter 21 395502 (2009);
         "P. Giannozzi et al., J. Phys.:Condens. Matter 29 465901 (2017);
         "P. Giannozzi et al., J. Chem. Phys. 152 154105 (2020);
          URL http://www.quantum-espresso.org", 
     in publications or presentations arising from this work. More details at
     http://www.quantum-espresso.org/quote

     Parallel version (MPI & OpenMP), running on      32 processor cores
     Number of MPI processes:                32
     Threads/MPI process:                     1

     MPI processes distributed on     1 nodes
     137928 MiB available memory on the printing compute node when the environment starts

     Reading input from scf.in

     Current dimensions of program PWSCF are:
     Max number of different atomic species (ntypx) = 10
     Max number of k-points (npk) =  40000
     Max angular momentum in pseudopotentials (lmaxx) =  4
     file Mg.pbe-spnl-rrkjus_psl.1.0.0.UPF: wavefunction(s)  2P renormalized

     K-points division:     npool     =       4
     R & G space division:  proc/nbgrp/npool/nimage =       8
     Subspace diagonalization in iterative solution of the eigenvalue problem:
     a serial algorithm will be used


     Parallelization info
     --------------------
     sticks:   dense  smooth     PW     G-vecs:    dense   smooth      PW
     Min         332     166     49                11281     3993     650
     Max         334     167     50                11282     3996     652
     Sum        2665    1333    397                90249    31951    5209

     Using Slab Decomposition



     bravais-lattice index     =            0
     lattice parameter (alat)  =       8.9619  a.u.
     unit-cell volume          =     508.9560 (a.u.)^3
     number of atoms/cell      =           38
     number of atomic types    =            3
     number of electrons       =        64.00
     number of Kohn-Sham states=           38
     kinetic-energy cutoff     =      60.0000  Ry
     charge density cutoff     =     480.0000  Ry
     scf convergence threshold =      1.0E-12
     mixing beta               =       0.4000
     number of iterations used =            8  plain     mixing
     Exchange-correlation= PBE
                           (   1   4   3   4   0   0   0)

     celldm(1)=   8.961865  celldm(2)=   0.000000  celldm(3)=   0.000000
     celldm(4)=   0.000000  celldm(5)=   0.000000  celldm(6)=   0.000000

     crystal axes: (cart. coord. in units of alat)
               a(1) = (   0.000000   0.707107   0.707107 )  
               a(2) = (   0.707107  -0.000000   0.707107 )  
               a(3) = (   0.707107   0.707107   0.000000 )  

     reciprocal axes: (cart. coord. in units 2 pi/alat)
               b(1) = ( -0.707107  0.707107  0.707107 )  
               b(2) = (  0.707107 -0.707107  0.707107 )  
               b(3) = (  0.707107  0.707107 -0.707107 )  


     PseudoPot. # 1 for Li read from file:
     ./pseudo/Li.pbe-s-rrkjus_psl.1.0.0.UPF
     MD5 check sum: a07f98b50cb2323aa4dab8f6b8331f41
     Pseudo is Ultrasoft, Zval =  3.0
     Generated using &quot;atomic&quot; code by A. Dal Corso  v.6.3MaX
     Using radial grid of 1017 points,  4 beta functions with: 
                l(1) =   0
                l(2) =   0
                l(3) =   1
                l(4) =   1
     Q(r) pseudized with 0 coefficients 


     PseudoPot. # 2 for Mg read from file:
     ./pseudo/Mg.pbe-spnl-rrkjus_psl.1.0.0.UPF
     MD5 check sum: 7bbac6cb09d08803af897bb2209b4f8d
     Pseudo is Ultrasoft + core correction, Zval = 10.0
     Generated using &quot;atomic&quot; code by A. Dal Corso  v.6.3
     Using radial grid of 1129 points,  4 beta functions with: 
                l(1) =   0
                l(2) =   0
                l(3) =   1
                l(4) =   1
     Q(r) pseudized with 0 coefficients 


     PseudoPot. # 3 for H  read from file:
     ./pseudo/H.pbe-rrkjus_psl.1.0.0.UPF
     MD5 check sum: af0d83a6ef17603a7b7645159cc407bf
     Pseudo is Ultrasoft, Zval =  1.0
     Generated using &quot;atomic&quot; code by A. Dal Corso  v.6.3MaX
     Using radial grid of  929 points,  2 beta functions with: 
                l(1) =   0
                l(2) =   0
     Q(r) pseudized with 0 coefficients 


     atomic species   valence    mass     pseudopotential
     Li                3.00     6.94100     Li( 1.00)
     Mg               10.00    24.30500     Mg( 1.00)
     H                 1.00     1.00800     H ( 1.00)

     No symmetry found



   Cartesian axes

     site n.     atom                  positions (alat units)
         1        Li     tau(   1) = (   0.5303301   0.8838835   0.5303301  )
         2        Li     tau(   2) = (   0.5303301   0.5303301   0.8838835  )
         3        Li     tau(   3) = (   0.8838835   0.5303301   0.5303301  )
         4        Li     tau(   4) = (   0.8838835   0.8838835   0.8838835  )
         5        Mg     tau(   5) = (  -0.0000000  -0.0000000   0.0000000  )
         6        Mg     tau(   6) = (   0.3535534   0.3535534   0.3535534  )
         7        H      tau(   7) = (   0.9439955   0.9439955   1.1773249  )
         8        H      tau(   8) = (   1.1773248   0.9439955   0.9439955  )
         9        H      tau(   9) = (   0.9439955   1.1773248   0.9439955  )
        10        H      tau(  10) = (   0.8237715   0.8237715   0.5904421  )
        11        H      tau(  11) = (   0.8237715   0.5904421   0.8237715  )
        12        H      tau(  12) = (   0.5904421   0.8237715   0.8237715  )
        13        H      tau(  13) = (   1.1773249   1.1773248   1.1773249  )
        14        H      tau(  14) = (   0.5904421   0.5904421   0.5904421  )
        15        H      tau(  15) = (   0.6160918   1.0546263   0.7981218  )
        16        H      tau(  16) = (   0.7981218   0.6160918   1.0546263  )
        17        H      tau(  17) = (   1.0546263   0.7981218   0.6160918  )
        18        H      tau(  18) = (   0.7131406   1.1516751   0.9696452  )
        19        H      tau(  19) = (   1.1516751   0.9696452   0.7131407  )
        20        H      tau(  20) = (   0.9696452   0.7131406   1.1516752  )
        21        H      tau(  21) = (   1.1516751   0.7131406   0.9696452  )
        22        H      tau(  22) = (   0.9696452   1.1516751   0.7131406  )
        23        H      tau(  23) = (   0.7131406   0.9696452   1.1516752  )
        24        H      tau(  24) = (   1.0546263   0.6160918   0.7981218  )
        25        H      tau(  25) = (   0.6160918   0.7981217   1.0546263  )
        26        H      tau(  26) = (   0.7981218   1.0546263   0.6160918  )
        27        H      tau(  27) = (   0.7981218   0.3595872   0.7981218  )
        28        H      tau(  28) = (   0.3595872   0.6160918   0.6160918  )
        29        H      tau(  29) = (   1.4081797   1.1516751   1.1516752  )
        30        H      tau(  30) = (   0.9696452   0.9696452   1.4081797  )
        31        H      tau(  31) = (   0.9696452   1.4081797   0.9696452  )
        32        H      tau(  32) = (   0.7981218   0.7981218   0.3595873  )
        33        H      tau(  33) = (   0.6160918   0.3595872   0.6160918  )
        34        H      tau(  34) = (   1.4081797   0.9696452   0.9696452  )
        35        H      tau(  35) = (   1.1516752   1.4081797   1.1516752  )
        36        H      tau(  36) = (   0.3595872   0.7981217   0.7981218  )
        37        H      tau(  37) = (   0.6160918   0.6160918   0.3595872  )
        38        H      tau(  38) = (   1.1516752   1.1516751   1.4081797  )

     number of k points=   260  Methfessel-Paxton smearing, width (Ry)=  0.0200

     Number of k-points >= 100: set verbosity='high' to print them.

     Dense  grid:    90249 G-vectors     FFT dimensions: (  64,  64,  64)

     Smooth grid:    31951 G-vectors     FFT dimensions: (  45,  45,  45)

     Estimated max dynamical RAM per process >      35.04 MB

     Estimated total dynamical RAM >       1.03 GB

     Check: negative core charge=   -0.000009

     Initial potential from superposition of free atoms

     starting charge      63.9794, renormalised to      64.0000
     Starting wfcs are   62 randomized atomic wfcs

     total cpu time spent up to now is        2.8 secs

     per-process dynamical memory:    41.8 Mb

     Self-consistent Calculation

     iteration #  1     ecut=    60.00 Ry     beta= 0.40
     Davidson diagonalization with overlap
     ethr =  1.00E-02,  avg # of iterations =  4.1

     total cpu time spent up to now is        7.7 secs

     total energy              =    -345.44806255 Ry
     estimated scf accuracy    <       1.22649194 Ry

     iteration #  2     ecut=    60.00 Ry     beta= 0.40
     Davidson diagonalization with overlap
     ethr =  1.92E-03,  avg # of iterations =  2.2

     total cpu time spent up to now is       11.3 secs

     total energy              =    -345.44895164 Ry
     estimated scf accuracy    <       0.23051782 Ry

     iteration #  3     ecut=    60.00 Ry     beta= 0.40
     Davidson diagonalization with overlap
     ethr =  3.60E-04,  avg # of iterations =  3.7

     total cpu time spent up to now is       15.6 secs

     total energy              =    -345.45684991 Ry
     estimated scf accuracy    <       0.02318034 Ry

     iteration #  4     ecut=    60.00 Ry     beta= 0.40
     Davidson diagonalization with overlap
     ethr =  3.62E-05,  avg # of iterations =  5.6

     total cpu time spent up to now is       21.2 secs

     total energy              =    -345.45990900 Ry
     estimated scf accuracy    <       0.00047438 Ry

     iteration #  5     ecut=    60.00 Ry     beta= 0.40
     Davidson diagonalization with overlap
     ethr =  7.41E-07,  avg # of iterations =  4.9

     total cpu time spent up to now is       26.8 secs

     total energy              =    -345.46003151 Ry
     estimated scf accuracy    <       0.00003448 Ry

     iteration #  6     ecut=    60.00 Ry     beta= 0.40
     Davidson diagonalization with overlap
     ethr =  5.39E-08,  avg # of iterations =  3.4

     total cpu time spent up to now is       31.4 secs

     total energy              =    -345.46003594 Ry
     estimated scf accuracy    <       0.00000493 Ry

     iteration #  7     ecut=    60.00 Ry     beta= 0.40
     Davidson diagonalization with overlap
     ethr =  7.71E-09,  avg # of iterations =  2.1

     total cpu time spent up to now is       35.4 secs

     total energy              =    -345.46003695 Ry
     estimated scf accuracy    <       0.00000006 Ry

     iteration #  8     ecut=    60.00 Ry     beta= 0.40
     Davidson diagonalization with overlap
     ethr =  9.33E-11,  avg # of iterations =  4.3

     total cpu time spent up to now is       40.4 secs

     total energy              =    -345.46003697 Ry
     estimated scf accuracy    <       0.00000001 Ry

     iteration #  9     ecut=    60.00 Ry     beta= 0.40
     Davidson diagonalization with overlap
     ethr =  2.19E-11,  avg # of iterations =  2.2

     total cpu time spent up to now is       44.2 secs

     total energy              =    -345.46003697 Ry
     estimated scf accuracy    <          9.3E-10 Ry

     iteration # 10     ecut=    60.00 Ry     beta= 0.40
     Davidson diagonalization with overlap
     ethr =  1.45E-12,  avg # of iterations =  4.0

     total cpu time spent up to now is       48.7 secs

     total energy              =    -345.46003697 Ry
     estimated scf accuracy    <          2.4E-10 Ry

     iteration # 11     ecut=    60.00 Ry     beta= 0.40
     Davidson diagonalization with overlap
     ethr =  3.80E-13,  avg # of iterations =  2.0

     total cpu time spent up to now is       52.3 secs

     total energy              =    -345.46003697 Ry
     estimated scf accuracy    <          2.0E-11 Ry

     iteration # 12     ecut=    60.00 Ry     beta= 0.40
     Davidson diagonalization with overlap
     ethr =  1.00E-13,  avg # of iterations =  2.8

     total cpu time spent up to now is       55.9 secs

     total energy              =    -345.46003697 Ry
     estimated scf accuracy    <          1.5E-12 Ry

     iteration # 13     ecut=    60.00 Ry     beta= 0.40
     Davidson diagonalization with overlap
     ethr =  1.00E-13,  avg # of iterations =  1.0

     total cpu time spent up to now is       59.1 secs

     End of self-consistent calculation

     Number of k-points >= 100: set verbosity='high' to print the bands.

     the Fermi energy is    15.0555 ev

!    total energy              =    -345.46003697 Ry
     estimated scf accuracy    <          8.2E-14 Ry
     smearing contrib. (-TS)   =       0.00057569 Ry
     internal energy E=F+TS    =    -345.46061266 Ry

     The total energy is F=E-TS. E is the sum of the following terms:
     one-electron contribution =    -152.46149536 Ry
     hartree contribution      =      99.79301093 Ry
     xc contribution           =     -78.72211777 Ry
     ewald contribution        =    -214.07001046 Ry

     convergence has been achieved in  13 iterations

     Forces acting on atoms (cartesian axes, Ry/au):

     atom    1 type  1   force =     0.00000000   -0.00000000    0.00000000
     atom    2 type  1   force =     0.00000000   -0.00000000   -0.00000000
     atom    3 type  1   force =    -0.00000000    0.00000000    0.00000000
     atom    4 type  1   force =    -0.00000000   -0.00000000   -0.00000000
     atom    5 type  2   force =     0.00000000    0.00000000   -0.00000002
     atom    6 type  2   force =    -0.00000000   -0.00000000    0.00000002
     atom    7 type  3   force =    -0.00099085   -0.00099085    0.00099084
     atom    8 type  3   force =     0.00099085   -0.00099084   -0.00099084
     atom    9 type  3   force =    -0.00099085    0.00099085   -0.00099085
     atom   10 type  3   force =     0.00099085    0.00099085   -0.00099084
     atom   11 type  3   force =     0.00099085   -0.00099085    0.00099085
     atom   12 type  3   force =    -0.00099085    0.00099084    0.00099084
     atom   13 type  3   force =     0.00099085    0.00099085    0.00099084
     atom   14 type  3   force =    -0.00099085   -0.00099085   -0.00099084
     atom   15 type  3   force =    -0.00086064   -0.00105022    0.00086064
     atom   16 type  3   force =     0.00086064   -0.00086064   -0.00105022
     atom   17 type  3   force =    -0.00105023    0.00086064   -0.00086064
     atom   18 type  3   force =     0.00105023    0.00086064   -0.00086064
     atom   19 type  3   force =     0.00086064   -0.00086064    0.00105022
     atom   20 type  3   force =    -0.00086064    0.00105022    0.00086064
     atom   21 type  3   force =     0.00086064    0.00105022   -0.00086064
     atom   22 type  3   force =    -0.00086064    0.00086064    0.00105022
     atom   23 type  3   force =     0.00105023   -0.00086064    0.00086064
     atom   24 type  3   force =    -0.00105023   -0.00086064    0.00086064
     atom   25 type  3   force =    -0.00086064    0.00086064   -0.00105022
     atom   26 type  3   force =     0.00086064   -0.00105022   -0.00086064
     atom   27 type  3   force =     0.00086064    0.00105022    0.00086064
     atom   28 type  3   force =     0.00105022   -0.00086064   -0.00086064
     atom   29 type  3   force =    -0.00105022    0.00086064    0.00086064
     atom   30 type  3   force =    -0.00086064   -0.00086064   -0.00105022
     atom   31 type  3   force =    -0.00086064   -0.00105022   -0.00086064
     atom   32 type  3   force =     0.00086064    0.00086065    0.00105022
     atom   33 type  3   force =    -0.00086064    0.00105022   -0.00086064
     atom   34 type  3   force =    -0.00105022   -0.00086064   -0.00086064
     atom   35 type  3   force =     0.00086064   -0.00105022    0.00086064
     atom   36 type  3   force =     0.00105022    0.00086064    0.00086064
     atom   37 type  3   force =    -0.00086064   -0.00086064    0.00105022
     atom   38 type  3   force =     0.00086064    0.00086064   -0.00105022

     Total force =     0.009251     Total SCF correction =     0.000000


     Computing stress (Cartesian axis) and pressure

          total   stress  (Ry/bohr**3)                   (kbar)     P=     2499.99
   0.01699462  -0.00000000  -0.00000000         2499.99       -0.00       -0.00
  -0.00000000   0.01699462   0.00000000           -0.00     2499.99        0.00
  -0.00000000   0.00000000   0.01699462           -0.00        0.00     2499.99


     Writing all to output data dir ./out/li2mgh16.save/ :
     XML data file, charge density, pseudopotentials, collected wavefunctions

     init_run     :      2.04s CPU      2.40s WALL (       1 calls)
     electrons    :     48.50s CPU     56.24s WALL (       1 calls)
     forces       :      0.31s CPU      0.35s WALL (       1 calls)
     stress       :      0.87s CPU      0.94s WALL (       1 calls)

     Called by init_run:
     wfcinit      :      1.67s CPU      2.01s WALL (       1 calls)
     potinit      :      0.11s CPU      0.12s WALL (       1 calls)
     hinit0       :      0.23s CPU      0.24s WALL (       1 calls)

     Called by electrons:
     c_bands      :     42.28s CPU     48.68s WALL (      13 calls)
     sum_band     :      5.79s CPU      7.01s WALL (      13 calls)
     v_of_rho     :      0.31s CPU      0.41s WALL (      14 calls)
     newd         :      0.05s CPU      0.07s WALL (      14 calls)
     mix_rho      :      0.03s CPU      0.03s WALL (      13 calls)

     Called by c_bands:
     init_us_2    :      0.90s CPU      0.93s WALL (    1885 calls)
     cegterg      :     38.57s CPU     44.92s WALL (     845 calls)

     Called by *egterg:
     cdiaghg      :      5.37s CPU      5.44s WALL (    3676 calls)
     h_psi        :     27.64s CPU     34.05s WALL (    3741 calls)
     s_psi        :      1.70s CPU      1.75s WALL (    3741 calls)
     g_psi        :      0.16s CPU      0.16s WALL (    2831 calls)

     Called by h_psi:
     h_psi:calbec :      2.12s CPU      2.46s WALL (    3741 calls)
     vloc_psi     :     23.32s CPU     29.30s WALL (    3741 calls)
                                        0.00s GPU  (    3741 calls)
     add_vuspsi   :      1.83s CPU      1.91s WALL (    3741 calls)

     General routines
     calbec       :      3.39s CPU      3.86s WALL (    5691 calls)
     fft          :      0.28s CPU      0.36s WALL (     205 calls)
     ffts         :      0.08s CPU      0.09s WALL (      27 calls)
     fftw         :     25.89s CPU     32.52s WALL (  200676 calls)
     interpolate  :      0.09s CPU      0.10s WALL (      14 calls)

     Parallel routines

     PWSCF        :     52.35s CPU   1m 0.73s WALL


   This run was terminated on:  13:57:51   5Jun2026            

=------------------------------------------------------------------------------=
   JOB DONE.
=------------------------------------------------------------------------------=
