
     Program PHONON v.6.7MaX starts on  1Jun2026 at  0:59:51 

     This program is part of the open-source Quantum ESPRESSO suite
     for quantum simulation of materials; please cite
         "P. Giannozzi et al., J. Phys.:Condens. Matter 21 395502 (2009);
         "P. Giannozzi et al., J. Phys.:Condens. Matter 29 465901 (2017);
          URL http://www.quantum-espresso.org", 
     in publications or presentations arising from this work. More details at
     http://www.quantum-espresso.org/quote

     Parallel version (MPI), running on     9 processors

     MPI processes distributed on     1 nodes
     R & G space division:  proc/nbgrp/npool/nimage =       9
     Reading input from ph.in
     Message from routine ph_restart_set_filename :
     cannot open file for reading or writing
     Message from routine ph_restart_set_filename :
     cannot open file for reading or writing
     Run is not recoverable starting from scratch

     Reading xml data from directory:

     ./out/lah10.save/
     file La.pbe-spfn-rrkjus_psl.1.0.0.UPF: wavefunction(s)  4F renormalized

     IMPORTANT: XC functional enforced from input :
     Exchange-correlation= PBE
                           (   1   4   3   4   0   0   0)
     Any further DFT definition will be discarded
     Please, verify this is what you really want


     Parallelization info
     --------------------
     sticks:   dense  smooth     PW     G-vecs:    dense   smooth      PW
     Min         255     102     32                 8110     2054     364
     Max         256     103     33                 8113     2057     366
     Sum        2299     925    295                73001    18499    3287

     Reading collected, re-writing distributed wavefunctions


     Dynamical matrices for ( 2, 2, 2)  uniform grid of q-points
     (   8 q-points):
       N         xq(1)         xq(2)         xq(3) 
       1   0.000000000   0.000000000   0.000000000
       2   0.353552172  -0.353550134   0.353543026
       3  -0.353544486  -0.353548961  -0.353547793
       4   0.000007686  -0.707099095  -0.000004767
       5   0.353550420   0.353543026  -0.353550134
       6   0.707102592  -0.000007108  -0.000007108
       7   0.000005935  -0.000005935  -0.707097927
       8   0.353558107  -0.353556069  -0.353554901

     Saving dvscf to file. Distribute only q points, not irreducible represetations.

     Calculation of q =    0.0000000   0.0000000   0.0000000

     LaH10 electron-phonon 2x2x2 q (RTSC sodalite — Fm-3m, calibration anchor 

     bravais-lattice index     =            0
     lattice parameter (alat)  =       6.4728  a.u.
     unit-cell volume          =     191.7640 (a.u.)^3
     number of atoms/cell      =           11
     number of atomic types    =            2
     kinetic-energy cut-off    =      80.0000  Ry
     charge density cut-off    =     800.0000  Ry
     convergence threshold     =      1.0E-14
     beta                      =       0.3000
     number of iterations used =            4
     Exchange-correlation= PBE
                           (   1   4   3   4   0   0   0)


     celldm(1)=    6.47276  celldm(2)=    0.00000  celldm(3)=    0.00000
     celldm(4)=    0.00000  celldm(5)=    0.00000  celldm(6)=    0.00000

     crystal axes: (cart. coord. in units of alat)
               a(1) = ( -0.7071 -0.0000  0.7071 )  
               a(2) = (  0.0000  0.7071  0.7071 )  
               a(3) = ( -0.7071  0.7071 -0.0000 )  

     reciprocal axes: (cart. coord. in units 2 pi/alat)
               b(1) = ( -0.7071 -0.7071  0.7071 )  
               b(2) = (  0.7071  0.7071  0.7071 )  
               b(3) = ( -0.7071  0.7071 -0.7071 )  


     Atoms inside the unit cell: 

     Cartesian axes

     site n.  atom      mass           positions (alat units)
        1     La 138.9050   tau(    1) = (    0.00000    0.00000    0.00000  )
        2     H    1.0080   tau(    2) = (   -0.35355    0.35355    0.35355  )
        3     H    1.0080   tau(    3) = (   -1.06064    1.06065    1.06065  )
        4     H    1.0080   tau(    4) = (   -0.53645    0.53646    0.53646  )
        5     H    1.0080   tau(    5) = (   -0.87774    0.87775    0.87775  )
        6     H    1.0080   tau(    6) = (   -0.87773    0.87773    0.53649  )
        7     H    1.0080   tau(    7) = (   -0.53647    0.53647    0.87772  )
        8     H    1.0080   tau(    8) = (   -0.53648    0.87773    0.87773  )
        9     H    1.0080   tau(    9) = (   -0.87771    0.53647    0.53647  )
       10     H    1.0080   tau(   10) = (   -0.87773    0.53648    0.87773  )
       11     H    1.0080   tau(   11) = (   -0.53647    0.87772    0.53647  )

     Computing dynamical matrix for 
                    q = (   0.0000000   0.0000000   0.0000000 )

      2 Sym.Ops. (with q -> -q+G )


     G cutoff =  849.0042  (   8113 G-vectors)     FFT grid: ( 60, 60, 60)
     G cutoff =  339.6017  (   2056 G-vectors)  smooth grid: ( 40, 40, 40)

     number of k points=   868  Methfessel-Paxton smearing, width (Ry)=  0.0100

     PseudoPot. # 1 for La read from file:
     ./pseudo/La.pbe-spfn-rrkjus_psl.1.0.0.UPF
     MD5 check sum: e3bc141c2ecb461b8d0a035ce9ac970e
     Pseudo is Ultrasoft + core correction, Zval = 11.0
     Generated using &quot;atomic&quot; code by A. Dal Corso  v.6.2.2
     Using radial grid of 1253 points,  8 beta functions with: 
                l(1) =   0
                l(2) =   0
                l(3) =   1
                l(4) =   1
                l(5) =   2
                l(6) =   2
                l(7) =   3
                l(8) =   3
     Q(r) pseudized with 0 coefficients 


     PseudoPot. # 2 for H  read from file:
     ./pseudo/H.pbe-rrkjus_psl.1.0.0.UPF
     MD5 check sum: 3f4114867bd07edc7f1424d066fc1888
     Pseudo is Ultrasoft, Zval =  1.0
     Generated using &quot;atomic&quot; code by A. Dal Corso  v.6.3MaX
     Using radial grid of  929 points,  2 beta functions with: 
                l(1) =   0
                l(2) =   0
     Q(r) pseudized with 0 coefficients 


     Mode symmetry, C_1 (1)     point group:


     Atomic displacements:
     There are   33 irreducible representations

     Representation     1      1 modes -  To be done

     Representation     2      1 modes -  To be done

     Representation     3      1 modes -  To be done

     Representation     4      1 modes -  To be done

     Representation     5      1 modes -  To be done

     Representation     6      1 modes -  To be done

     Representation     7      1 modes -  To be done

     Representation     8      1 modes -  To be done

     Representation     9      1 modes -  To be done

     Representation    10      1 modes -  To be done

     Representation    11      1 modes -  To be done

     Representation    12      1 modes -  To be done

     Representation    13      1 modes -  To be done

     Representation    14      1 modes -  To be done

     Representation    15      1 modes -  To be done

     Representation    16      1 modes -  To be done

     Representation    17      1 modes -  To be done

     Representation    18      1 modes -  To be done

     Representation    19      1 modes -  To be done

     Representation    20      1 modes -  To be done

     Representation    21      1 modes -  To be done

     Representation    22      1 modes -  To be done

     Representation    23      1 modes -  To be done

     Representation    24      1 modes -  To be done

     Representation    25      1 modes -  To be done

     Representation    26      1 modes -  To be done

     Representation    27      1 modes -  To be done

     Representation    28      1 modes -  To be done

     Representation    29      1 modes -  To be done

     Representation    30      1 modes -  To be done

     Representation    31      1 modes -  To be done

     Representation    32      1 modes -  To be done

     Representation    33      1 modes -  To be done



     Alpha used in Ewald sum =   2.8000
     PHONON       :     54.36s CPU     57.58s WALL



     Representation #   1 mode #   1

     Self-consistent Calculation

     Pert. #  1: Fermi energy shift (Ry) =    -1.0820E-08     0.0000E+00

      iter #   1 total cpu time :    88.7 secs   av.it.:   6.9
      thresh= 1.000E-02 alpha_mix =  0.300 |ddv_scf|^2 =  1.196E-06

     Pert. #  1: Fermi energy shift (Ry) =    -5.5431E-09     0.0000E+00

      iter #   2 total cpu time :   125.0 secs   av.it.:  11.0
      thresh= 1.093E-04 alpha_mix =  0.300 |ddv_scf|^2 =  2.713E-07

     Pert. #  1: Fermi energy shift (Ry) =    -4.9423E-09     0.0000E+00

      iter #   3 total cpu time :   163.2 secs   av.it.:  11.7
      thresh= 5.209E-05 alpha_mix =  0.300 |ddv_scf|^2 =  2.493E-08

     Pert. #  1: Fermi energy shift (Ry) =    -4.7934E-09     0.0000E+00

      iter #   4 total cpu time :   202.5 secs   av.it.:  12.0
      thresh= 1.579E-05 alpha_mix =  0.300 |ddv_scf|^2 =  3.136E-10

     Pert. #  1: Fermi energy shift (Ry) =    -4.9757E-09     0.0000E+00

      iter #   5 total cpu time :   240.5 secs   av.it.:  11.6
      thresh= 1.771E-06 alpha_mix =  0.300 |ddv_scf|^2 =  1.758E-11

     Pert. #  1: Fermi energy shift (Ry) =    -5.0310E-09     0.0000E+00

      iter #   6 total cpu time :   278.5 secs   av.it.:  11.5
      thresh= 4.192E-07 alpha_mix =  0.300 |ddv_scf|^2 =  3.263E-12

     Pert. #  1: Fermi energy shift (Ry) =    -5.0397E-09     0.0000E+00

      iter #   7 total cpu time :   317.6 secs   av.it.:  11.9
      thresh= 1.806E-07 alpha_mix =  0.300 |ddv_scf|^2 =  2.550E-14

     Pert. #  1: Fermi energy shift (Ry) =    -5.0421E-09     0.0000E+00

      iter #   8 total cpu time :   352.7 secs   av.it.:  10.3
      thresh= 1.597E-08 alpha_mix =  0.300 |ddv_scf|^2 =  1.166E-14

     Pert. #  1: Fermi energy shift (Ry) =    -5.0415E-09     0.0000E+00

      iter #   9 total cpu time :   391.7 secs   av.it.:  11.8
      thresh= 1.080E-08 alpha_mix =  0.300 |ddv_scf|^2 =  5.325E-17

     End of self-consistent calculation

     Convergence has been achieved 


     Representation #   2 mode #   2

     Self-consistent Calculation

     Pert. #  1: Fermi energy shift (Ry) =    -1.6926E-08     0.0000E+00

      iter #   1 total cpu time :   427.8 secs   av.it.:   6.9
      thresh= 1.000E-02 alpha_mix =  0.300 |ddv_scf|^2 =  1.196E-06

     Pert. #  1: Fermi energy shift (Ry) =    -2.6955E-08     0.0000E+00

      iter #   2 total cpu time :   464.3 secs   av.it.:  11.0
      thresh= 1.093E-04 alpha_mix =  0.300 |ddv_scf|^2 =  2.713E-07

     Pert. #  1: Fermi energy shift (Ry) =    -2.5096E-08     0.0000E+00

      iter #   3 total cpu time :   502.9 secs   av.it.:  11.7
      thresh= 5.209E-05 alpha_mix =  0.300 |ddv_scf|^2 =  2.493E-08

     Pert. #  1: Fermi energy shift (Ry) =    -2.6315E-08     0.0000E+00

      iter #   4 total cpu time :   542.3 secs   av.it.:  12.0
      thresh= 1.579E-05 alpha_mix =  0.300 |ddv_scf|^2 =  3.136E-10

     Pert. #  1: Fermi energy shift (Ry) =    -2.6186E-08     0.0000E+00

      iter #   5 total cpu time :   580.4 secs   av.it.:  11.6
      thresh= 1.771E-06 alpha_mix =  0.300 |ddv_scf|^2 =  1.758E-11

     Pert. #  1: Fermi energy shift (Ry) =    -2.6243E-08     0.0000E+00

      iter #   6 total cpu time :   618.2 secs   av.it.:  11.5
      thresh= 4.193E-07 alpha_mix =  0.300 |ddv_scf|^2 =  3.263E-12

     Pert. #  1: Fermi energy shift (Ry) =    -2.6221E-08     0.0000E+00

      iter #   7 total cpu time :   657.4 secs   av.it.:  11.9
      thresh= 1.806E-07 alpha_mix =  0.300 |ddv_scf|^2 =  2.550E-14

     Pert. #  1: Fermi energy shift (Ry) =    -2.6228E-08     0.0000E+00

      iter #   8 total cpu time :   693.5 secs   av.it.:  10.3
      thresh= 1.597E-08 alpha_mix =  0.300 |ddv_scf|^2 =  1.166E-14

     Pert. #  1: Fermi energy shift (Ry) =    -2.6226E-08     0.0000E+00

      iter #   9 total cpu time :   733.3 secs   av.it.:  11.8
      thresh= 1.080E-08 alpha_mix =  0.300 |ddv_scf|^2 =  5.320E-17

     End of self-consistent calculation

     Convergence has been achieved 


     Representation #   3 mode #   3

     Self-consistent Calculation

     Pert. #  1: Fermi energy shift (Ry) =    -1.0356E-08    -2.7105E-20

      iter #   1 total cpu time :   769.8 secs   av.it.:   6.9
      thresh= 1.000E-02 alpha_mix =  0.300 |ddv_scf|^2 =  1.196E-06

     Pert. #  1: Fermi energy shift (Ry) =    -1.5448E-08     4.2352E-22

      iter #   2 total cpu time :   807.1 secs   av.it.:  11.0
      thresh= 1.093E-04 alpha_mix =  0.300 |ddv_scf|^2 =  2.713E-07

     Pert. #  1: Fermi energy shift (Ry) =    -1.7460E-08     2.1176E-22

      iter #   3 total cpu time :   845.8 secs   av.it.:  11.7
      thresh= 5.209E-05 alpha_mix =  0.300 |ddv_scf|^2 =  2.493E-08

     Pert. #  1: Fermi energy shift (Ry) =    -1.6234E-08    -3.3087E-24

      iter #   4 total cpu time :   885.4 secs   av.it.:  12.0
      thresh= 1.579E-05 alpha_mix =  0.300 |ddv_scf|^2 =  3.135E-10

     Pert. #  1: Fermi energy shift (Ry) =    -1.6425E-08    -6.6174E-24

      iter #   5 total cpu time :   923.3 secs   av.it.:  11.6
      thresh= 1.771E-06 alpha_mix =  0.300 |ddv_scf|^2 =  1.758E-11

     Pert. #  1: Fermi energy shift (Ry) =    -1.6485E-08    -1.6544E-24

      iter #   6 total cpu time :   961.0 secs   av.it.:  11.5
      thresh= 4.193E-07 alpha_mix =  0.300 |ddv_scf|^2 =  3.263E-12

     Pert. #  1: Fermi energy shift (Ry) =    -1.6490E-08    -8.2718E-25

      iter #   7 total cpu time :   999.7 secs   av.it.:  11.9
      thresh= 1.806E-07 alpha_mix =  0.300 |ddv_scf|^2 =  2.550E-14

     Pert. #  1: Fermi energy shift (Ry) =    -1.6491E-08    -4.1359E-25

      iter #   8 total cpu time :  1034.3 secs   av.it.:  10.3
      thresh= 1.597E-08 alpha_mix =  0.300 |ddv_scf|^2 =  1.166E-14

     Pert. #  1: Fermi energy shift (Ry) =    -1.6487E-08    -4.1359E-25

      iter #   9 total cpu time :  1073.1 secs   av.it.:  11.8
      thresh= 1.080E-08 alpha_mix =  0.300 |ddv_scf|^2 =  5.361E-17

     End of self-consistent calculation

     Convergence has been achieved 


     Representation #   4 mode #   4

     Self-consistent Calculation

     Pert. #  1: Fermi energy shift (Ry) =     2.2857E-05     0.0000E+00

      iter #   1 total cpu time :  1102.3 secs   av.it.:   4.7
      thresh= 1.000E-02 alpha_mix =  0.300 |ddv_scf|^2 =  3.856E-08

     Pert. #  1: Fermi energy shift (Ry) =     2.2028E-05     0.0000E+00

      iter #   2 total cpu time :  1139.4 secs   av.it.:  11.2
      thresh= 1.964E-05 alpha_mix =  0.300 |ddv_scf|^2 =  8.364E-09

     Pert. #  1: Fermi energy shift (Ry) =     1.7143E-05     0.0000E+00

      iter #   3 total cpu time :  1178.8 secs   av.it.:  12.0
      thresh= 9.146E-06 alpha_mix =  0.300 |ddv_scf|^2 =  1.639E-10

     Pert. #  1: Fermi energy shift (Ry) =     1.6778E-05     0.0000E+00

      iter #   4 total cpu time :  1218.8 secs   av.it.:  12.2
      thresh= 1.280E-06 alpha_mix =  0.300 |ddv_scf|^2 =  7.053E-12

     Pert. #  1: Fermi energy shift (Ry) =     1.6665E-05     0.0000E+00

      iter #   5 total cpu time :  1257.3 secs   av.it.:  11.8
      thresh= 2.656E-07 alpha_mix =  0.300 |ddv_scf|^2 =  1.136E-12

     Pert. #  1: Fermi energy shift (Ry) =     1.6675E-05     0.0000E+00

      iter #   6 total cpu time :  1296.0 secs   av.it.:  11.9
      thresh= 1.066E-07 alpha_mix =  0.300 |ddv_scf|^2 =  8.433E-14

     Pert. #  1: Fermi energy shift (Ry) =     1.6678E-05     0.0000E+00

      iter #   7 total cpu time :  1335.3 secs   av.it.:  12.0
      thresh= 2.904E-08 alpha_mix =  0.300 |ddv_scf|^2 =  6.073E-16

     End of self-consistent calculation

     Convergence has been achieved 


     Representation #   5 mode #   5

     Self-consistent Calculation

     Pert. #  1: Fermi energy shift (Ry) =    -2.4866E-05     0.0000E+00

      iter #   1 total cpu time :  1364.4 secs   av.it.:   4.7
      thresh= 1.000E-02 alpha_mix =  0.300 |ddv_scf|^2 =  3.856E-08

     Pert. #  1: Fermi energy shift (Ry) =    -2.0965E-05     0.0000E+00

      iter #   2 total cpu time :  1401.5 secs   av.it.:  11.2
      thresh= 1.964E-05 alpha_mix =  0.300 |ddv_scf|^2 =  8.364E-09

     Pert. #  1: Fermi energy shift (Ry) =    -1.6308E-05     0.0000E+00

      iter #   3 total cpu time :  1440.8 secs   av.it.:  12.0
      thresh= 9.146E-06 alpha_mix =  0.300 |ddv_scf|^2 =  1.639E-10

     Pert. #  1: Fermi energy shift (Ry) =    -1.5916E-05     0.0000E+00

      iter #   4 total cpu time :  1480.8 secs   av.it.:  12.2
      thresh= 1.280E-06 alpha_mix =  0.300 |ddv_scf|^2 =  7.047E-12

     Pert. #  1: Fermi energy shift (Ry) =    -1.5825E-05     0.0000E+00

      iter #   5 total cpu time :  1519.5 secs   av.it.:  11.8
      thresh= 2.655E-07 alpha_mix =  0.300 |ddv_scf|^2 =  1.135E-12

     Pert. #  1: Fermi energy shift (Ry) =    -1.5839E-05     0.0000E+00

      iter #   6 total cpu time :  1558.4 secs   av.it.:  11.9
      thresh= 1.065E-07 alpha_mix =  0.300 |ddv_scf|^2 =  8.434E-14

     Pert. #  1: Fermi energy shift (Ry) =    -1.5836E-05     0.0000E+00

      iter #   7 total cpu time :  1597.8 secs   av.it.:  12.0
      thresh= 2.904E-08 alpha_mix =  0.300 |ddv_scf|^2 =  6.071E-16

     End of self-consistent calculation

     Convergence has been achieved 


     Representation #   6 mode #   6

     Self-consistent Calculation

     Pert. #  1: Fermi energy shift (Ry) =    -2.2046E-05     6.7763E-21

      iter #   1 total cpu time :  1626.9 secs   av.it.:   4.7
      thresh= 1.000E-02 alpha_mix =  0.300 |ddv_scf|^2 =  3.856E-08

     Pert. #  1: Fermi energy shift (Ry) =    -2.0269E-05    -2.6470E-23

      iter #   2 total cpu time :  1663.8 secs   av.it.:  11.2
      thresh= 1.964E-05 alpha_mix =  0.300 |ddv_scf|^2 =  8.364E-09

     Pert. #  1: Fermi energy shift (Ry) =    -1.5652E-05    -2.6470E-23

      iter #   3 total cpu time :  1703.2 secs   av.it.:  12.0
      thresh= 9.146E-06 alpha_mix =  0.300 |ddv_scf|^2 =  1.639E-10

     Pert. #  1: Fermi energy shift (Ry) =    -1.5296E-05    -3.3087E-24

      iter #   4 total cpu time :  1743.2 secs   av.it.:  12.2
      thresh= 1.280E-06 alpha_mix =  0.300 |ddv_scf|^2 =  7.051E-12

     Pert. #  1: Fermi energy shift (Ry) =    -1.5194E-05    -2.0680E-25

      iter #   5 total cpu time :  1781.7 secs   av.it.:  11.8
      thresh= 2.655E-07 alpha_mix =  0.300 |ddv_scf|^2 =  1.135E-12

     Pert. #  1: Fermi energy shift (Ry) =    -1.5203E-05     2.0680E-25

      iter #   6 total cpu time :  1820.5 secs   av.it.:  11.9
      thresh= 1.066E-07 alpha_mix =  0.300 |ddv_scf|^2 =  8.434E-14

     Pert. #  1: Fermi energy shift (Ry) =    -1.5204E-05    -2.0680E-25

      iter #   7 total cpu time :  1859.8 secs   av.it.:  12.0
      thresh= 2.904E-08 alpha_mix =  0.300 |ddv_scf|^2 =  6.072E-16

     End of self-consistent calculation

     Convergence has been achieved 


     Representation #   7 mode #   7

     Self-consistent Calculation

     Pert. #  1: Fermi energy shift (Ry) =    -2.2855E-05     0.0000E+00

      iter #   1 total cpu time :  1888.9 secs   av.it.:   4.7
      thresh= 1.000E-02 alpha_mix =  0.300 |ddv_scf|^2 =  3.856E-08

     Pert. #  1: Fermi energy shift (Ry) =    -2.2023E-05     0.0000E+00

      iter #   2 total cpu time :  1926.9 secs   av.it.:  11.2
      thresh= 1.964E-05 alpha_mix =  0.300 |ddv_scf|^2 =  8.364E-09

     Pert. #  1: Fermi energy shift (Ry) =    -1.7138E-05     0.0000E+00

      iter #   3 total cpu time :  1967.7 secs   av.it.:  12.0
      thresh= 9.146E-06 alpha_mix =  0.300 |ddv_scf|^2 =  1.639E-10

     Pert. #  1: Fermi energy shift (Ry) =    -1.6774E-05     0.0000E+00

      iter #   4 total cpu time :  2009.0 secs   av.it.:  12.2
      thresh= 1.280E-06 alpha_mix =  0.300 |ddv_scf|^2 =  7.053E-12

     Pert. #  1: Fermi energy shift (Ry) =    -1.6660E-05     0.0000E+00

      iter #   5 total cpu time :  2048.8 secs   av.it.:  11.8
      thresh= 2.656E-07 alpha_mix =  0.300 |ddv_scf|^2 =  1.136E-12

     Pert. #  1: Fermi energy shift (Ry) =    -1.6671E-05     0.0000E+00

      iter #   6 total cpu time :  2089.4 secs   av.it.:  11.9
      thresh= 1.066E-07 alpha_mix =  0.300 |ddv_scf|^2 =  8.433E-14

     Pert. #  1: Fermi energy shift (Ry) =    -1.6673E-05     0.0000E+00

      iter #   7 total cpu time :  2128.7 secs   av.it.:  12.0
      thresh= 2.904E-08 alpha_mix =  0.300 |ddv_scf|^2 =  6.073E-16

     End of self-consistent calculation

     Convergence has been achieved 


     Representation #   8 mode #   8

     Self-consistent Calculation

     Pert. #  1: Fermi energy shift (Ry) =     2.4867E-05     0.0000E+00

      iter #   1 total cpu time :  2157.8 secs   av.it.:   4.7
      thresh= 1.000E-02 alpha_mix =  0.300 |ddv_scf|^2 =  3.856E-08

     Pert. #  1: Fermi energy shift (Ry) =     2.0968E-05     0.0000E+00

      iter #   2 total cpu time :  2194.8 secs   av.it.:  11.2
      thresh= 1.964E-05 alpha_mix =  0.300 |ddv_scf|^2 =  8.364E-09

     Pert. #  1: Fermi energy shift (Ry) =     1.6311E-05     0.0000E+00

      iter #   3 total cpu time :  2234.2 secs   av.it.:  12.0
      thresh= 9.146E-06 alpha_mix =  0.300 |ddv_scf|^2 =  1.639E-10

     Pert. #  1: Fermi energy shift (Ry) =     1.5918E-05     0.0000E+00

      iter #   4 total cpu time :  2274.4 secs   av.it.:  12.2
      thresh= 1.280E-06 alpha_mix =  0.300 |ddv_scf|^2 =  7.047E-12

     Pert. #  1: Fermi energy shift (Ry) =     1.5828E-05     0.0000E+00

      iter #   5 total cpu time :  2312.9 secs   av.it.:  11.8
      thresh= 2.655E-07 alpha_mix =  0.300 |ddv_scf|^2 =  1.135E-12

     Pert. #  1: Fermi energy shift (Ry) =     1.5842E-05     0.0000E+00

      iter #   6 total cpu time :  2351.7 secs   av.it.:  11.9
      thresh= 1.065E-07 alpha_mix =  0.300 |ddv_scf|^2 =  8.434E-14

     Pert. #  1: Fermi energy shift (Ry) =     1.5839E-05     0.0000E+00

      iter #   7 total cpu time :  2391.0 secs   av.it.:  12.0
      thresh= 2.904E-08 alpha_mix =  0.300 |ddv_scf|^2 =  6.071E-16

     End of self-consistent calculation

     Convergence has been achieved 


     Representation #   9 mode #   9

     Self-consistent Calculation

     Pert. #  1: Fermi energy shift (Ry) =     2.2045E-05     6.7763E-21

      iter #   1 total cpu time :  2420.1 secs   av.it.:   4.7
      thresh= 1.000E-02 alpha_mix =  0.300 |ddv_scf|^2 =  3.856E-08

     Pert. #  1: Fermi energy shift (Ry) =     2.0271E-05    -2.6470E-23

      iter #   2 total cpu time :  2457.2 secs   av.it.:  11.2
      thresh= 1.964E-05 alpha_mix =  0.300 |ddv_scf|^2 =  8.364E-09

     Pert. #  1: Fermi energy shift (Ry) =     1.5654E-05    -2.6470E-23

      iter #   3 total cpu time :  2496.5 secs   av.it.:  12.0
      thresh= 9.146E-06 alpha_mix =  0.300 |ddv_scf|^2 =  1.639E-10

     Pert. #  1: Fermi energy shift (Ry) =     1.5298E-05    -3.3087E-24

      iter #   4 total cpu time :  2536.4 secs   av.it.:  12.2
      thresh= 1.280E-06 alpha_mix =  0.300 |ddv_scf|^2 =  7.051E-12

     Pert. #  1: Fermi energy shift (Ry) =     1.5195E-05    -2.0680E-25

      iter #   5 total cpu time :  2575.5 secs   av.it.:  11.8
      thresh= 2.655E-07 alpha_mix =  0.300 |ddv_scf|^2 =  1.135E-12

     Pert. #  1: Fermi energy shift (Ry) =     1.5205E-05     4.1359E-25

      iter #   6 total cpu time :  2616.1 secs   av.it.:  11.9
      thresh= 1.066E-07 alpha_mix =  0.300 |ddv_scf|^2 =  8.434E-14

     Pert. #  1: Fermi energy shift (Ry) =     1.5206E-05    -2.0680E-25

      iter #   7 total cpu time :  2656.2 secs   av.it.:  12.0
      thresh= 2.904E-08 alpha_mix =  0.300 |ddv_scf|^2 =  6.072E-16

     End of self-consistent calculation

     Convergence has been achieved 


     Representation #  10 mode #  10

     Self-consistent Calculation

     Pert. #  1: Fermi energy shift (Ry) =     1.1408E-03     0.0000E+00

      iter #   1 total cpu time :  2686.1 secs   av.it.:   4.7
      thresh= 1.000E-02 alpha_mix =  0.300 |ddv_scf|^2 =  4.185E-08

     Pert. #  1: Fermi energy shift (Ry) =    -1.6750E-03     0.0000E+00

      iter #   2 total cpu time :  2723.7 secs   av.it.:  11.3
      thresh= 2.046E-05 alpha_mix =  0.300 |ddv_scf|^2 =  8.582E-09

     Pert. #  1: Fermi energy shift (Ry) =    -4.2293E-03     0.0000E+00

      iter #   3 total cpu time :  2763.2 secs   av.it.:  12.1
      thresh= 9.264E-06 alpha_mix =  0.300 |ddv_scf|^2 =  2.475E-10

     Pert. #  1: Fermi energy shift (Ry) =    -4.5950E-03     0.0000E+00

      iter #   4 total cpu time :  2802.9 secs   av.it.:  12.2
      thresh= 1.573E-06 alpha_mix =  0.300 |ddv_scf|^2 =  2.137E-11

     Pert. #  1: Fermi energy shift (Ry) =    -4.4297E-03     0.0000E+00

      iter #   5 total cpu time :  2842.6 secs   av.it.:  12.2
      thresh= 4.623E-07 alpha_mix =  0.300 |ddv_scf|^2 =  1.792E-12

     Pert. #  1: Fermi energy shift (Ry) =    -4.3339E-03     0.0000E+00

      iter #   6 total cpu time :  2881.6 secs   av.it.:  12.0
      thresh= 1.339E-07 alpha_mix =  0.300 |ddv_scf|^2 =  2.120E-13

     Pert. #  1: Fermi energy shift (Ry) =    -4.3139E-03     0.0000E+00

      iter #   7 total cpu time :  2920.3 secs   av.it.:  11.9
      thresh= 4.605E-08 alpha_mix =  0.300 |ddv_scf|^2 =  2.033E-14

     Pert. #  1: Fermi energy shift (Ry) =    -4.3132E-03     0.0000E+00

      iter #   8 total cpu time :  2958.0 secs   av.it.:  11.4
      thresh= 1.426E-08 alpha_mix =  0.300 |ddv_scf|^2 =  6.483E-15

     End of self-consistent calculation

     Convergence has been achieved 


     Representation #  11 mode #  11

     Self-consistent Calculation

     Pert. #  1: Fermi energy shift (Ry) =    -1.1269E-03     0.0000E+00

      iter #   1 total cpu time :  2987.1 secs   av.it.:   4.7
      thresh= 1.000E-02 alpha_mix =  0.300 |ddv_scf|^2 =  4.185E-08

     Pert. #  1: Fermi energy shift (Ry) =     1.6857E-03     0.0000E+00

      iter #   2 total cpu time :  3024.5 secs   av.it.:  11.3
      thresh= 2.046E-05 alpha_mix =  0.300 |ddv_scf|^2 =  8.582E-09

     Pert. #  1: Fermi energy shift (Ry) =     4.2385E-03     0.0000E+00

      iter #   3 total cpu time :  3064.0 secs   av.it.:  12.1
      thresh= 9.264E-06 alpha_mix =  0.300 |ddv_scf|^2 =  2.475E-10

     Pert. #  1: Fermi energy shift (Ry) =     4.6038E-03     0.0000E+00

      iter #   4 total cpu time :  3103.7 secs   av.it.:  12.2
      thresh= 1.573E-06 alpha_mix =  0.300 |ddv_scf|^2 =  2.137E-11

     Pert. #  1: Fermi energy shift (Ry) =     4.4383E-03     0.0000E+00

      iter #   5 total cpu time :  3143.8 secs   av.it.:  12.2
      thresh= 4.622E-07 alpha_mix =  0.300 |ddv_scf|^2 =  1.789E-12

     Pert. #  1: Fermi energy shift (Ry) =     4.3428E-03     0.0000E+00

      iter #   6 total cpu time :  3182.9 secs   av.it.:  12.0
      thresh= 1.338E-07 alpha_mix =  0.300 |ddv_scf|^2 =  2.123E-13

     Pert. #  1: Fermi energy shift (Ry) =     4.3227E-03     0.0000E+00

      iter #   7 total cpu time :  3221.7 secs   av.it.:  11.9
      thresh= 4.607E-08 alpha_mix =  0.300 |ddv_scf|^2 =  2.033E-14

     Pert. #  1: Fermi energy shift (Ry) =     4.3220E-03     0.0000E+00

      iter #   8 total cpu time :  3259.4 secs   av.it.:  11.4
      thresh= 1.426E-08 alpha_mix =  0.300 |ddv_scf|^2 =  6.483E-15

     End of self-consistent calculation

     Convergence has been achieved 


     Representation #  12 mode #  12

     Self-consistent Calculation

     Pert. #  1: Fermi energy shift (Ry) =    -1.1218E-03    -6.7763E-21

      iter #   1 total cpu time :  3288.5 secs   av.it.:   4.7
      thresh= 1.000E-02 alpha_mix =  0.300 |ddv_scf|^2 =  4.185E-08

     Pert. #  1: Fermi energy shift (Ry) =     1.6895E-03     6.6174E-24

      iter #   2 total cpu time :  3326.0 secs   av.it.:  11.3
      thresh= 2.046E-05 alpha_mix =  0.300 |ddv_scf|^2 =  8.582E-09

     Pert. #  1: Fermi energy shift (Ry) =     4.2417E-03    -1.6544E-24

      iter #   3 total cpu time :  3365.6 secs   av.it.:  12.1
      thresh= 9.264E-06 alpha_mix =  0.300 |ddv_scf|^2 =  2.475E-10

     Pert. #  1: Fermi energy shift (Ry) =     4.6069E-03     8.2718E-25

      iter #   4 total cpu time :  3405.3 secs   av.it.:  12.2
      thresh= 1.573E-06 alpha_mix =  0.300 |ddv_scf|^2 =  2.136E-11

     Pert. #  1: Fermi energy shift (Ry) =     4.4413E-03     8.2718E-25

      iter #   5 total cpu time :  3445.0 secs   av.it.:  12.2
      thresh= 4.622E-07 alpha_mix =  0.300 |ddv_scf|^2 =  1.789E-12

     Pert. #  1: Fermi energy shift (Ry) =     4.3459E-03     4.1359E-25

      iter #   6 total cpu time :  3484.2 secs   av.it.:  12.0
      thresh= 1.337E-07 alpha_mix =  0.300 |ddv_scf|^2 =  2.126E-13

     Pert. #  1: Fermi energy shift (Ry) =     4.3258E-03     4.1359E-25

      iter #   7 total cpu time :  3523.0 secs   av.it.:  11.9
      thresh= 4.610E-08 alpha_mix =  0.300 |ddv_scf|^2 =  2.033E-14

     Pert. #  1: Fermi energy shift (Ry) =     4.3250E-03     4.1359E-25

      iter #   8 total cpu time :  3560.6 secs   av.it.:  11.4
      thresh= 1.426E-08 alpha_mix =  0.300 |ddv_scf|^2 =  6.483E-15

     End of self-consistent calculation

     Convergence has been achieved 


     Representation #  13 mode #  13

     Self-consistent Calculation

     Pert. #  1: Fermi energy shift (Ry) =    -1.1408E-03     0.0000E+00

      iter #   1 total cpu time :  3589.7 secs   av.it.:   4.7
      thresh= 1.000E-02 alpha_mix =  0.300 |ddv_scf|^2 =  4.185E-08

     Pert. #  1: Fermi energy shift (Ry) =     1.6750E-03     0.0000E+00

      iter #   2 total cpu time :  3627.0 secs   av.it.:  11.3
      thresh= 2.046E-05 alpha_mix =  0.300 |ddv_scf|^2 =  8.582E-09

     Pert. #  1: Fermi energy shift (Ry) =     4.2293E-03     0.0000E+00

      iter #   3 total cpu time :  3666.6 secs   av.it.:  12.1
      thresh= 9.264E-06 alpha_mix =  0.300 |ddv_scf|^2 =  2.475E-10

     Pert. #  1: Fermi energy shift (Ry) =     4.5950E-03     0.0000E+00

      iter #   4 total cpu time :  3706.3 secs   av.it.:  12.2
      thresh= 1.573E-06 alpha_mix =  0.300 |ddv_scf|^2 =  2.137E-11

     Pert. #  1: Fermi energy shift (Ry) =     4.4297E-03     0.0000E+00

      iter #   5 total cpu time :  3746.0 secs   av.it.:  12.2
      thresh= 4.623E-07 alpha_mix =  0.300 |ddv_scf|^2 =  1.792E-12

     Pert. #  1: Fermi energy shift (Ry) =     4.3339E-03     0.0000E+00

      iter #   6 total cpu time :  3785.0 secs   av.it.:  12.0
      thresh= 1.339E-07 alpha_mix =  0.300 |ddv_scf|^2 =  2.120E-13

     Pert. #  1: Fermi energy shift (Ry) =     4.3139E-03     0.0000E+00

      iter #   7 total cpu time :  3823.9 secs   av.it.:  11.9
      thresh= 4.605E-08 alpha_mix =  0.300 |ddv_scf|^2 =  2.033E-14

     Pert. #  1: Fermi energy shift (Ry) =     4.3132E-03     0.0000E+00

      iter #   8 total cpu time :  3861.5 secs   av.it.:  11.4
      thresh= 1.426E-08 alpha_mix =  0.300 |ddv_scf|^2 =  6.483E-15

     End of self-consistent calculation

     Convergence has been achieved 


     Representation #  14 mode #  14

     Self-consistent Calculation

     Pert. #  1: Fermi energy shift (Ry) =     1.1269E-03     0.0000E+00

      iter #   1 total cpu time :  3890.6 secs   av.it.:   4.7
      thresh= 1.000E-02 alpha_mix =  0.300 |ddv_scf|^2 =  4.185E-08

     Pert. #  1: Fermi energy shift (Ry) =    -1.6857E-03     0.0000E+00

      iter #   2 total cpu time :  3927.9 secs   av.it.:  11.3
      thresh= 2.046E-05 alpha_mix =  0.300 |ddv_scf|^2 =  8.582E-09

     Pert. #  1: Fermi energy shift (Ry) =    -4.2385E-03     0.0000E+00

      iter #   3 total cpu time :  3967.4 secs   av.it.:  12.1
      thresh= 9.264E-06 alpha_mix =  0.300 |ddv_scf|^2 =  2.475E-10

     Pert. #  1: Fermi energy shift (Ry) =    -4.6038E-03     0.0000E+00

      iter #   4 total cpu time :  4007.1 secs   av.it.:  12.2
      thresh= 1.573E-06 alpha_mix =  0.300 |ddv_scf|^2 =  2.137E-11

     Pert. #  1: Fermi energy shift (Ry) =    -4.4383E-03     0.0000E+00

      iter #   5 total cpu time :  4046.9 secs   av.it.:  12.2
      thresh= 4.622E-07 alpha_mix =  0.300 |ddv_scf|^2 =  1.789E-12

     Pert. #  1: Fermi energy shift (Ry) =    -4.3428E-03     0.0000E+00

      iter #   6 total cpu time :  4087.0 secs   av.it.:  12.0
      thresh= 1.338E-07 alpha_mix =  0.300 |ddv_scf|^2 =  2.123E-13

     Pert. #  1: Fermi energy shift (Ry) =    -4.3227E-03     0.0000E+00

      iter #   7 total cpu time :  4127.1 secs   av.it.:  11.9
      thresh= 4.607E-08 alpha_mix =  0.300 |ddv_scf|^2 =  2.033E-14

     Pert. #  1: Fermi energy shift (Ry) =    -4.3220E-03     0.0000E+00

      iter #   8 total cpu time :  4166.8 secs   av.it.:  11.4
      thresh= 1.426E-08 alpha_mix =  0.300 |ddv_scf|^2 =  6.483E-15

     End of self-consistent calculation

     Convergence has been achieved 


     Representation #  15 mode #  15

     Self-consistent Calculation

     Pert. #  1: Fermi energy shift (Ry) =     1.1218E-03    -6.7763E-21

      iter #   1 total cpu time :  4196.9 secs   av.it.:   4.7
      thresh= 1.000E-02 alpha_mix =  0.300 |ddv_scf|^2 =  4.185E-08

     Pert. #  1: Fermi energy shift (Ry) =    -1.6895E-03     6.6174E-24

      iter #   2 total cpu time :  4235.6 secs   av.it.:  11.3
      thresh= 2.046E-05 alpha_mix =  0.300 |ddv_scf|^2 =  8.582E-09

     Pert. #  1: Fermi energy shift (Ry) =    -4.2417E-03    -1.6544E-24

      iter #   3 total cpu time :  4276.4 secs   av.it.:  12.1
      thresh= 9.264E-06 alpha_mix =  0.300 |ddv_scf|^2 =  2.475E-10

     Pert. #  1: Fermi energy shift (Ry) =    -4.6069E-03     8.2718E-25

      iter #   4 total cpu time :  4317.3 secs   av.it.:  12.2
      thresh= 1.573E-06 alpha_mix =  0.300 |ddv_scf|^2 =  2.136E-11

     Pert. #  1: Fermi energy shift (Ry) =    -4.4413E-03     8.2718E-25

      iter #   5 total cpu time :  4359.1 secs   av.it.:  12.2
      thresh= 4.622E-07 alpha_mix =  0.300 |ddv_scf|^2 =  1.789E-12

     Pert. #  1: Fermi energy shift (Ry) =    -4.3459E-03     4.1359E-25

      iter #   6 total cpu time :  4399.4 secs   av.it.:  12.0
      thresh= 1.337E-07 alpha_mix =  0.300 |ddv_scf|^2 =  2.126E-13

     Pert. #  1: Fermi energy shift (Ry) =    -4.3258E-03     4.1359E-25

      iter #   7 total cpu time :  4438.3 secs   av.it.:  11.9
      thresh= 4.610E-08 alpha_mix =  0.300 |ddv_scf|^2 =  2.033E-14

     Pert. #  1: Fermi energy shift (Ry) =    -4.3250E-03     4.1359E-25

      iter #   8 total cpu time :  4475.9 secs   av.it.:  11.4
      thresh= 1.426E-08 alpha_mix =  0.300 |ddv_scf|^2 =  6.483E-15

     End of self-consistent calculation

     Convergence has been achieved 


     Representation #  16 mode #  16

     Self-consistent Calculation

     Pert. #  1: Fermi energy shift (Ry) =    -1.1564E-03     0.0000E+00

      iter #   1 total cpu time :  4505.1 secs   av.it.:   4.7
      thresh= 1.000E-02 alpha_mix =  0.300 |ddv_scf|^2 =  4.185E-08

     Pert. #  1: Fermi energy shift (Ry) =     1.6607E-03     0.0000E+00

      iter #   2 total cpu time :  4543.1 secs   av.it.:  11.3
      thresh= 2.046E-05 alpha_mix =  0.300 |ddv_scf|^2 =  8.582E-09

     Pert. #  1: Fermi energy shift (Ry) =     4.2159E-03     0.0000E+00

      iter #   3 total cpu time :  4583.6 secs   av.it.:  12.1
      thresh= 9.264E-06 alpha_mix =  0.300 |ddv_scf|^2 =  2.475E-10

     Pert. #  1: Fermi energy shift (Ry) =     4.5823E-03     0.0000E+00

      iter #   4 total cpu time :  4624.3 secs   av.it.:  12.2
      thresh= 1.573E-06 alpha_mix =  0.300 |ddv_scf|^2 =  2.136E-11

     Pert. #  1: Fermi energy shift (Ry) =     4.4168E-03     0.0000E+00

      iter #   5 total cpu time :  4664.6 secs   av.it.:  12.2
      thresh= 4.621E-07 alpha_mix =  0.300 |ddv_scf|^2 =  1.788E-12

     Pert. #  1: Fermi energy shift (Ry) =     4.3214E-03     0.0000E+00

      iter #   6 total cpu time :  4703.8 secs   av.it.:  12.0
      thresh= 1.337E-07 alpha_mix =  0.300 |ddv_scf|^2 =  2.126E-13

     Pert. #  1: Fermi energy shift (Ry) =     4.3012E-03     0.0000E+00

      iter #   7 total cpu time :  4743.6 secs   av.it.:  11.9
      thresh= 4.611E-08 alpha_mix =  0.300 |ddv_scf|^2 =  2.033E-14

     Pert. #  1: Fermi energy shift (Ry) =     4.3005E-03     0.0000E+00

      iter #   8 total cpu time :  4782.3 secs   av.it.:  11.4
      thresh= 1.426E-08 alpha_mix =  0.300 |ddv_scf|^2 =  6.480E-15

     End of self-consistent calculation

     Convergence has been achieved 


     Representation #  17 mode #  17

     Self-consistent Calculation

     Pert. #  1: Fermi energy shift (Ry) =     1.1441E-03     0.0000E+00

      iter #   1 total cpu time :  4812.2 secs   av.it.:   4.7
      thresh= 1.000E-02 alpha_mix =  0.300 |ddv_scf|^2 =  4.185E-08

     Pert. #  1: Fermi energy shift (Ry) =    -1.6704E-03     0.0000E+00

      iter #   2 total cpu time :  4849.9 secs   av.it.:  11.3
      thresh= 2.046E-05 alpha_mix =  0.300 |ddv_scf|^2 =  8.582E-09

     Pert. #  1: Fermi energy shift (Ry) =    -4.2244E-03     0.0000E+00

      iter #   3 total cpu time :  4889.7 secs   av.it.:  12.1
      thresh= 9.264E-06 alpha_mix =  0.300 |ddv_scf|^2 =  2.475E-10

     Pert. #  1: Fermi energy shift (Ry) =    -4.5904E-03     0.0000E+00

      iter #   4 total cpu time :  4929.4 secs   av.it.:  12.2
      thresh= 1.573E-06 alpha_mix =  0.300 |ddv_scf|^2 =  2.135E-11

     Pert. #  1: Fermi energy shift (Ry) =    -4.4247E-03     0.0000E+00

      iter #   5 total cpu time :  4969.2 secs   av.it.:  12.2
      thresh= 4.621E-07 alpha_mix =  0.300 |ddv_scf|^2 =  1.786E-12

     Pert. #  1: Fermi energy shift (Ry) =    -4.3295E-03     0.0000E+00

      iter #   6 total cpu time :  5008.2 secs   av.it.:  12.0
      thresh= 1.336E-07 alpha_mix =  0.300 |ddv_scf|^2 =  2.130E-13

     Pert. #  1: Fermi energy shift (Ry) =    -4.3093E-03     0.0000E+00

      iter #   7 total cpu time :  5047.2 secs   av.it.:  11.9
      thresh= 4.615E-08 alpha_mix =  0.300 |ddv_scf|^2 =  2.033E-14

     Pert. #  1: Fermi energy shift (Ry) =    -4.3086E-03     0.0000E+00

      iter #   8 total cpu time :  5084.8 secs   av.it.:  11.4
      thresh= 1.426E-08 alpha_mix =  0.300 |ddv_scf|^2 =  6.483E-15

     End of self-consistent calculation

     Convergence has been achieved 


     Representation #  18 mode #  18

     Self-consistent Calculation

     Pert. #  1: Fermi energy shift (Ry) =    -1.1433E-03     3.3881E-21

      iter #   1 total cpu time :  5113.9 secs   av.it.:   4.7
      thresh= 1.000E-02 alpha_mix =  0.300 |ddv_scf|^2 =  4.185E-08

     Pert. #  1: Fermi energy shift (Ry) =     1.6724E-03    -5.2940E-23

      iter #   2 total cpu time :  5151.3 secs   av.it.:  11.3
      thresh= 2.046E-05 alpha_mix =  0.300 |ddv_scf|^2 =  8.582E-09

     Pert. #  1: Fermi energy shift (Ry) =     4.2299E-03    -1.3235E-23

      iter #   3 total cpu time :  5190.8 secs   av.it.:  12.1
      thresh= 9.264E-06 alpha_mix =  0.300 |ddv_scf|^2 =  2.475E-10

     Pert. #  1: Fermi energy shift (Ry) =     4.5955E-03    -5.1699E-26

      iter #   4 total cpu time :  5230.6 secs   av.it.:  12.2
      thresh= 1.573E-06 alpha_mix =  0.300 |ddv_scf|^2 =  2.135E-11

     Pert. #  1: Fermi energy shift (Ry) =     4.4296E-03    -4.1359E-25

      iter #   5 total cpu time :  5270.3 secs   av.it.:  12.2
      thresh= 4.620E-07 alpha_mix =  0.300 |ddv_scf|^2 =  1.788E-12

     Pert. #  1: Fermi energy shift (Ry) =     4.3345E-03    -2.0680E-25

      iter #   6 total cpu time :  5309.3 secs   av.it.:  12.0
      thresh= 1.337E-07 alpha_mix =  0.300 |ddv_scf|^2 =  2.137E-13

     Pert. #  1: Fermi energy shift (Ry) =     4.3142E-03    -2.0680E-25

      iter #   7 total cpu time :  5348.1 secs   av.it.:  11.9
      thresh= 4.622E-08 alpha_mix =  0.300 |ddv_scf|^2 =  2.033E-14

     Pert. #  1: Fermi energy shift (Ry) =     4.3134E-03    -1.0340E-25

      iter #   8 total cpu time :  5385.9 secs   av.it.:  11.4
      thresh= 1.426E-08 alpha_mix =  0.300 |ddv_scf|^2 =  6.489E-15

     End of self-consistent calculation

     Convergence has been achieved 


     Representation #  19 mode #  19

     Self-consistent Calculation

     Pert. #  1: Fermi energy shift (Ry) =     1.1564E-03     0.0000E+00

      iter #   1 total cpu time :  5415.0 secs   av.it.:   4.7
      thresh= 1.000E-02 alpha_mix =  0.300 |ddv_scf|^2 =  4.185E-08

     Pert. #  1: Fermi energy shift (Ry) =    -1.6606E-03     0.0000E+00

      iter #   2 total cpu time :  5452.4 secs   av.it.:  11.3
      thresh= 2.046E-05 alpha_mix =  0.300 |ddv_scf|^2 =  8.582E-09

     Pert. #  1: Fermi energy shift (Ry) =    -4.2159E-03     0.0000E+00

      iter #   3 total cpu time :  5491.9 secs   av.it.:  12.1
      thresh= 9.264E-06 alpha_mix =  0.300 |ddv_scf|^2 =  2.475E-10

     Pert. #  1: Fermi energy shift (Ry) =    -4.5823E-03     0.0000E+00

      iter #   4 total cpu time :  5531.6 secs   av.it.:  12.2
      thresh= 1.573E-06 alpha_mix =  0.300 |ddv_scf|^2 =  2.136E-11

     Pert. #  1: Fermi energy shift (Ry) =    -4.4168E-03     0.0000E+00

      iter #   5 total cpu time :  5571.4 secs   av.it.:  12.2
      thresh= 4.621E-07 alpha_mix =  0.300 |ddv_scf|^2 =  1.788E-12

     Pert. #  1: Fermi energy shift (Ry) =    -4.3214E-03     0.0000E+00

      iter #   6 total cpu time :  5610.4 secs   av.it.:  12.0
      thresh= 1.337E-07 alpha_mix =  0.300 |ddv_scf|^2 =  2.126E-13

     Pert. #  1: Fermi energy shift (Ry) =    -4.3012E-03     0.0000E+00

      iter #   7 total cpu time :  5649.3 secs   av.it.:  11.9
      thresh= 4.611E-08 alpha_mix =  0.300 |ddv_scf|^2 =  2.033E-14

     Pert. #  1: Fermi energy shift (Ry) =    -4.3005E-03     0.0000E+00

      iter #   8 total cpu time :  5686.9 secs   av.it.:  11.4
      thresh= 1.426E-08 alpha_mix =  0.300 |ddv_scf|^2 =  6.480E-15

     End of self-consistent calculation

     Convergence has been achieved 


     Representation #  20 mode #  20

     Self-consistent Calculation

     Pert. #  1: Fermi energy shift (Ry) =    -1.1441E-03     0.0000E+00

      iter #   1 total cpu time :  5716.1 secs   av.it.:   4.7
      thresh= 1.000E-02 alpha_mix =  0.300 |ddv_scf|^2 =  4.185E-08

     Pert. #  1: Fermi energy shift (Ry) =     1.6704E-03     0.0000E+00

      iter #   2 total cpu time :  5753.5 secs   av.it.:  11.3
      thresh= 2.046E-05 alpha_mix =  0.300 |ddv_scf|^2 =  8.582E-09

     Pert. #  1: Fermi energy shift (Ry) =     4.2244E-03     0.0000E+00

      iter #   3 total cpu time :  5793.0 secs   av.it.:  12.1
      thresh= 9.264E-06 alpha_mix =  0.300 |ddv_scf|^2 =  2.475E-10

     Pert. #  1: Fermi energy shift (Ry) =     4.5904E-03     0.0000E+00

      iter #   4 total cpu time :  5832.7 secs   av.it.:  12.2
      thresh= 1.573E-06 alpha_mix =  0.300 |ddv_scf|^2 =  2.135E-11

     Pert. #  1: Fermi energy shift (Ry) =     4.4247E-03     0.0000E+00

      iter #   5 total cpu time :  5872.4 secs   av.it.:  12.2
      thresh= 4.621E-07 alpha_mix =  0.300 |ddv_scf|^2 =  1.786E-12

     Pert. #  1: Fermi energy shift (Ry) =     4.3295E-03     0.0000E+00

      iter #   6 total cpu time :  5911.5 secs   av.it.:  12.0
      thresh= 1.336E-07 alpha_mix =  0.300 |ddv_scf|^2 =  2.130E-13

     Pert. #  1: Fermi energy shift (Ry) =     4.3093E-03     0.0000E+00

      iter #   7 total cpu time :  5952.0 secs   av.it.:  11.9
      thresh= 4.615E-08 alpha_mix =  0.300 |ddv_scf|^2 =  2.033E-14

     Pert. #  1: Fermi energy shift (Ry) =     4.3086E-03     0.0000E+00

      iter #   8 total cpu time :  5991.0 secs   av.it.:  11.4
      thresh= 1.426E-08 alpha_mix =  0.300 |ddv_scf|^2 =  6.483E-15

     End of self-consistent calculation

     Convergence has been achieved 


     Representation #  21 mode #  21

     Self-consistent Calculation

     Pert. #  1: Fermi energy shift (Ry) =     1.1433E-03     3.3881E-21

      iter #   1 total cpu time :  6021.2 secs   av.it.:   4.7
      thresh= 1.000E-02 alpha_mix =  0.300 |ddv_scf|^2 =  4.185E-08

     Pert. #  1: Fermi energy shift (Ry) =    -1.6724E-03    -5.2940E-23

      iter #   2 total cpu time :  6059.9 secs   av.it.:  11.3
      thresh= 2.046E-05 alpha_mix =  0.300 |ddv_scf|^2 =  8.582E-09

     Pert. #  1: Fermi energy shift (Ry) =    -4.2299E-03    -1.3235E-23

      iter #   3 total cpu time :  6101.7 secs   av.it.:  12.1
      thresh= 9.264E-06 alpha_mix =  0.300 |ddv_scf|^2 =  2.475E-10

     Pert. #  1: Fermi energy shift (Ry) =    -4.5955E-03    -5.1699E-26

      iter #   4 total cpu time :  6142.6 secs   av.it.:  12.2
      thresh= 1.573E-06 alpha_mix =  0.300 |ddv_scf|^2 =  2.135E-11

     Pert. #  1: Fermi energy shift (Ry) =    -4.4297E-03    -4.1359E-25

      iter #   5 total cpu time :  6183.7 secs   av.it.:  12.2
      thresh= 4.620E-07 alpha_mix =  0.300 |ddv_scf|^2 =  1.788E-12

     Pert. #  1: Fermi energy shift (Ry) =    -4.3345E-03    -2.0680E-25

      iter #   6 total cpu time :  6224.1 secs   av.it.:  12.0
      thresh= 1.337E-07 alpha_mix =  0.300 |ddv_scf|^2 =  2.137E-13

     Pert. #  1: Fermi energy shift (Ry) =    -4.3142E-03    -2.0680E-25

      iter #   7 total cpu time :  6265.6 secs   av.it.:  11.9
      thresh= 4.622E-08 alpha_mix =  0.300 |ddv_scf|^2 =  2.033E-14

     Pert. #  1: Fermi energy shift (Ry) =    -4.3134E-03    -1.0340E-25

      iter #   8 total cpu time :  6305.1 secs   av.it.:  11.4
      thresh= 1.426E-08 alpha_mix =  0.300 |ddv_scf|^2 =  6.489E-15

     End of self-consistent calculation

     Convergence has been achieved 


     Representation #  22 mode #  22

     Self-consistent Calculation

     Pert. #  1: Fermi energy shift (Ry) =     1.1614E-03     0.0000E+00

      iter #   1 total cpu time :  6334.9 secs   av.it.:   4.7
      thresh= 1.000E-02 alpha_mix =  0.300 |ddv_scf|^2 =  4.185E-08

     Pert. #  1: Fermi energy shift (Ry) =    -1.6586E-03     0.0000E+00

      iter #   2 total cpu time :  6372.3 secs   av.it.:  11.3
      thresh= 2.046E-05 alpha_mix =  0.300 |ddv_scf|^2 =  8.582E-09

     Pert. #  1: Fermi energy shift (Ry) =    -4.2182E-03     0.0000E+00

      iter #   3 total cpu time :  6412.0 secs   av.it.:  12.1
      thresh= 9.264E-06 alpha_mix =  0.300 |ddv_scf|^2 =  2.475E-10

     Pert. #  1: Fermi energy shift (Ry) =    -4.5841E-03     0.0000E+00

      iter #   4 total cpu time :  6451.8 secs   av.it.:  12.2
      thresh= 1.573E-06 alpha_mix =  0.300 |ddv_scf|^2 =  2.136E-11

     Pert. #  1: Fermi energy shift (Ry) =    -4.4186E-03     0.0000E+00

      iter #   5 total cpu time :  6491.7 secs   av.it.:  12.2
      thresh= 4.622E-07 alpha_mix =  0.300 |ddv_scf|^2 =  1.790E-12

     Pert. #  1: Fermi energy shift (Ry) =    -4.3231E-03     0.0000E+00

      iter #   6 total cpu time :  6530.7 secs   av.it.:  12.0
      thresh= 1.338E-07 alpha_mix =  0.300 |ddv_scf|^2 =  2.128E-13

     Pert. #  1: Fermi energy shift (Ry) =    -4.3029E-03     0.0000E+00

      iter #   7 total cpu time :  6569.6 secs   av.it.:  11.9
      thresh= 4.613E-08 alpha_mix =  0.300 |ddv_scf|^2 =  2.033E-14

     Pert. #  1: Fermi energy shift (Ry) =    -4.3022E-03     0.0000E+00

      iter #   8 total cpu time :  6607.5 secs   av.it.:  11.4
      thresh= 1.426E-08 alpha_mix =  0.300 |ddv_scf|^2 =  6.488E-15

     End of self-consistent calculation

     Convergence has been achieved 


     Representation #  23 mode #  23

     Self-consistent Calculation

     Pert. #  1: Fermi energy shift (Ry) =     1.1429E-03     0.0000E+00

      iter #   1 total cpu time :  6637.2 secs   av.it.:   4.7
      thresh= 1.000E-02 alpha_mix =  0.300 |ddv_scf|^2 =  4.185E-08

     Pert. #  1: Fermi energy shift (Ry) =    -1.6712E-03     0.0000E+00

      iter #   2 total cpu time :  6674.6 secs   av.it.:  11.3
      thresh= 2.046E-05 alpha_mix =  0.300 |ddv_scf|^2 =  8.582E-09

     Pert. #  1: Fermi energy shift (Ry) =    -4.2251E-03     0.0000E+00

      iter #   3 total cpu time :  6714.3 secs   av.it.:  12.1
      thresh= 9.264E-06 alpha_mix =  0.300 |ddv_scf|^2 =  2.475E-10

     Pert. #  1: Fermi energy shift (Ry) =    -4.5910E-03     0.0000E+00

      iter #   4 total cpu time :  6754.0 secs   av.it.:  12.2
      thresh= 1.573E-06 alpha_mix =  0.300 |ddv_scf|^2 =  2.136E-11

     Pert. #  1: Fermi energy shift (Ry) =    -4.4255E-03     0.0000E+00

      iter #   5 total cpu time :  6793.9 secs   av.it.:  12.2
      thresh= 4.621E-07 alpha_mix =  0.300 |ddv_scf|^2 =  1.789E-12

     Pert. #  1: Fermi energy shift (Ry) =    -4.3301E-03     0.0000E+00

      iter #   6 total cpu time :  6832.9 secs   av.it.:  12.0
      thresh= 1.337E-07 alpha_mix =  0.300 |ddv_scf|^2 =  2.127E-13

     Pert. #  1: Fermi energy shift (Ry) =    -4.3100E-03     0.0000E+00

      iter #   7 total cpu time :  6871.8 secs   av.it.:  11.9
      thresh= 4.612E-08 alpha_mix =  0.300 |ddv_scf|^2 =  2.033E-14

     Pert. #  1: Fermi energy shift (Ry) =    -4.3092E-03     0.0000E+00

      iter #   8 total cpu time :  6909.4 secs   av.it.:  11.4
      thresh= 1.426E-08 alpha_mix =  0.300 |ddv_scf|^2 =  6.485E-15

     End of self-consistent calculation

     Convergence has been achieved 


     Representation #  24 mode #  24

     Self-consistent Calculation

     Pert. #  1: Fermi energy shift (Ry) =     1.1382E-03     3.3881E-21

      iter #   1 total cpu time :  6938.9 secs   av.it.:   4.7
      thresh= 1.000E-02 alpha_mix =  0.300 |ddv_scf|^2 =  4.185E-08

     Pert. #  1: Fermi energy shift (Ry) =    -1.6742E-03    -2.6470E-23

      iter #   2 total cpu time :  6976.3 secs   av.it.:  11.3
      thresh= 2.046E-05 alpha_mix =  0.300 |ddv_scf|^2 =  8.582E-09

     Pert. #  1: Fermi energy shift (Ry) =    -4.2277E-03    -1.3235E-23

      iter #   3 total cpu time :  7015.8 secs   av.it.:  12.1
      thresh= 9.264E-06 alpha_mix =  0.300 |ddv_scf|^2 =  2.475E-10

     Pert. #  1: Fermi energy shift (Ry) =    -4.5935E-03     5.1699E-26

      iter #   4 total cpu time :  7055.5 secs   av.it.:  12.2
      thresh= 1.573E-06 alpha_mix =  0.300 |ddv_scf|^2 =  2.136E-11

     Pert. #  1: Fermi energy shift (Ry) =    -4.4280E-03    -2.0680E-25

      iter #   5 total cpu time :  7095.3 secs   av.it.:  12.2
      thresh= 4.622E-07 alpha_mix =  0.300 |ddv_scf|^2 =  1.788E-12

     Pert. #  1: Fermi energy shift (Ry) =    -4.3327E-03    -5.1699E-26

      iter #   6 total cpu time :  7134.6 secs   av.it.:  12.0
      thresh= 1.337E-07 alpha_mix =  0.300 |ddv_scf|^2 =  2.127E-13

     Pert. #  1: Fermi energy shift (Ry) =    -4.3125E-03    -1.0340E-25

      iter #   7 total cpu time :  7174.0 secs   av.it.:  11.9
      thresh= 4.612E-08 alpha_mix =  0.300 |ddv_scf|^2 =  2.033E-14

     Pert. #  1: Fermi energy shift (Ry) =    -4.3118E-03    -2.5849E-26

      iter #   8 total cpu time :  7211.8 secs   av.it.:  11.4
      thresh= 1.426E-08 alpha_mix =  0.300 |ddv_scf|^2 =  6.484E-15

     End of self-consistent calculation

     Convergence has been achieved 


     Representation #  25 mode #  25

     Self-consistent Calculation

     Pert. #  1: Fermi energy shift (Ry) =    -1.1614E-03     0.0000E+00

      iter #   1 total cpu time :  7241.3 secs   av.it.:   4.7
      thresh= 1.000E-02 alpha_mix =  0.300 |ddv_scf|^2 =  4.185E-08

     Pert. #  1: Fermi energy shift (Ry) =     1.6586E-03     0.0000E+00

      iter #   2 total cpu time :  7279.2 secs   av.it.:  11.3
      thresh= 2.046E-05 alpha_mix =  0.300 |ddv_scf|^2 =  8.582E-09

     Pert. #  1: Fermi energy shift (Ry) =     4.2182E-03     0.0000E+00

      iter #   3 total cpu time :  7319.4 secs   av.it.:  12.1
      thresh= 9.264E-06 alpha_mix =  0.300 |ddv_scf|^2 =  2.475E-10

     Pert. #  1: Fermi energy shift (Ry) =     4.5841E-03     0.0000E+00

      iter #   4 total cpu time :  7359.1 secs   av.it.:  12.2
      thresh= 1.573E-06 alpha_mix =  0.300 |ddv_scf|^2 =  2.136E-11

     Pert. #  1: Fermi energy shift (Ry) =     4.4186E-03     0.0000E+00

      iter #   5 total cpu time :  7398.9 secs   av.it.:  12.2
      thresh= 4.622E-07 alpha_mix =  0.300 |ddv_scf|^2 =  1.790E-12

     Pert. #  1: Fermi energy shift (Ry) =     4.3231E-03     0.0000E+00

      iter #   6 total cpu time :  7438.0 secs   av.it.:  12.0
      thresh= 1.338E-07 alpha_mix =  0.300 |ddv_scf|^2 =  2.128E-13

     Pert. #  1: Fermi energy shift (Ry) =     4.3029E-03     0.0000E+00

      iter #   7 total cpu time :  7477.0 secs   av.it.:  11.9
      thresh= 4.613E-08 alpha_mix =  0.300 |ddv_scf|^2 =  2.033E-14

     Pert. #  1: Fermi energy shift (Ry) =     4.3022E-03     0.0000E+00

      iter #   8 total cpu time :  7515.7 secs   av.it.:  11.4
      thresh= 1.426E-08 alpha_mix =  0.300 |ddv_scf|^2 =  6.488E-15

     End of self-consistent calculation

     Convergence has been achieved 


     Representation #  26 mode #  26

     Self-consistent Calculation

     Pert. #  1: Fermi energy shift (Ry) =    -1.1429E-03     0.0000E+00

      iter #   1 total cpu time :  7544.9 secs   av.it.:   4.7
      thresh= 1.000E-02 alpha_mix =  0.300 |ddv_scf|^2 =  4.185E-08

     Pert. #  1: Fermi energy shift (Ry) =     1.6712E-03     0.0000E+00

      iter #   2 total cpu time :  7582.3 secs   av.it.:  11.3
      thresh= 2.046E-05 alpha_mix =  0.300 |ddv_scf|^2 =  8.582E-09

     Pert. #  1: Fermi energy shift (Ry) =     4.2251E-03     0.0000E+00

      iter #   3 total cpu time :  7622.0 secs   av.it.:  12.1
      thresh= 9.264E-06 alpha_mix =  0.300 |ddv_scf|^2 =  2.475E-10

     Pert. #  1: Fermi energy shift (Ry) =     4.5910E-03     0.0000E+00

      iter #   4 total cpu time :  7661.9 secs   av.it.:  12.2
      thresh= 1.573E-06 alpha_mix =  0.300 |ddv_scf|^2 =  2.136E-11

     Pert. #  1: Fermi energy shift (Ry) =     4.4255E-03     0.0000E+00

      iter #   5 total cpu time :  7701.6 secs   av.it.:  12.2
      thresh= 4.621E-07 alpha_mix =  0.300 |ddv_scf|^2 =  1.789E-12

     Pert. #  1: Fermi energy shift (Ry) =     4.3301E-03     0.0000E+00

      iter #   6 total cpu time :  7740.7 secs   av.it.:  12.0
      thresh= 1.337E-07 alpha_mix =  0.300 |ddv_scf|^2 =  2.127E-13

     Pert. #  1: Fermi energy shift (Ry) =     4.3100E-03     0.0000E+00

      iter #   7 total cpu time :  7779.6 secs   av.it.:  11.9
      thresh= 4.612E-08 alpha_mix =  0.300 |ddv_scf|^2 =  2.033E-14

     Pert. #  1: Fermi energy shift (Ry) =     4.3092E-03     0.0000E+00

      iter #   8 total cpu time :  7817.7 secs   av.it.:  11.4
      thresh= 1.426E-08 alpha_mix =  0.300 |ddv_scf|^2 =  6.485E-15

     End of self-consistent calculation

     Convergence has been achieved 


     Representation #  27 mode #  27

     Self-consistent Calculation

     Pert. #  1: Fermi energy shift (Ry) =    -1.1382E-03     3.3881E-21

      iter #   1 total cpu time :  7848.7 secs   av.it.:   4.7
      thresh= 1.000E-02 alpha_mix =  0.300 |ddv_scf|^2 =  4.185E-08

     Pert. #  1: Fermi energy shift (Ry) =     1.6742E-03    -2.6470E-23

      iter #   2 total cpu time :  7888.7 secs   av.it.:  11.3
      thresh= 2.046E-05 alpha_mix =  0.300 |ddv_scf|^2 =  8.582E-09

     Pert. #  1: Fermi energy shift (Ry) =     4.2277E-03    -1.3235E-23

      iter #   3 total cpu time :  7929.7 secs   av.it.:  12.1
      thresh= 9.264E-06 alpha_mix =  0.300 |ddv_scf|^2 =  2.475E-10

     Pert. #  1: Fermi energy shift (Ry) =     4.5935E-03     5.1699E-26

      iter #   4 total cpu time :  7970.8 secs   av.it.:  12.2
      thresh= 1.573E-06 alpha_mix =  0.300 |ddv_scf|^2 =  2.136E-11

     Pert. #  1: Fermi energy shift (Ry) =     4.4280E-03    -2.0680E-25

      iter #   5 total cpu time :  8010.8 secs   av.it.:  12.2
      thresh= 4.622E-07 alpha_mix =  0.300 |ddv_scf|^2 =  1.788E-12

     Pert. #  1: Fermi energy shift (Ry) =     4.3326E-03    -5.1699E-26

      iter #   6 total cpu time :  8049.9 secs   av.it.:  12.0
      thresh= 1.337E-07 alpha_mix =  0.300 |ddv_scf|^2 =  2.127E-13

     Pert. #  1: Fermi energy shift (Ry) =     4.3125E-03    -1.0340E-25

      iter #   7 total cpu time :  8089.3 secs   av.it.:  11.9
      thresh= 4.612E-08 alpha_mix =  0.300 |ddv_scf|^2 =  2.033E-14

     Pert. #  1: Fermi energy shift (Ry) =     4.3118E-03    -2.5849E-26

      iter #   8 total cpu time :  8127.0 secs   av.it.:  11.4
      thresh= 1.426E-08 alpha_mix =  0.300 |ddv_scf|^2 =  6.484E-15

     End of self-consistent calculation

     Convergence has been achieved 


     Representation #  28 mode #  28

     Self-consistent Calculation

     Pert. #  1: Fermi energy shift (Ry) =    -1.1552E-03     0.0000E+00

      iter #   1 total cpu time :  8156.3 secs   av.it.:   4.7
      thresh= 1.000E-02 alpha_mix =  0.300 |ddv_scf|^2 =  4.185E-08

     Pert. #  1: Fermi energy shift (Ry) =     1.6610E-03     0.0000E+00

      iter #   2 total cpu time :  8193.7 secs   av.it.:  11.3
      thresh= 2.046E-05 alpha_mix =  0.300 |ddv_scf|^2 =  8.582E-09

     Pert. #  1: Fermi energy shift (Ry) =     4.2162E-03     0.0000E+00

      iter #   3 total cpu time :  8233.3 secs   av.it.:  12.1
      thresh= 9.264E-06 alpha_mix =  0.300 |ddv_scf|^2 =  2.475E-10

     Pert. #  1: Fermi energy shift (Ry) =     4.5826E-03     0.0000E+00

      iter #   4 total cpu time :  8273.0 secs   av.it.:  12.2
      thresh= 1.573E-06 alpha_mix =  0.300 |ddv_scf|^2 =  2.136E-11

     Pert. #  1: Fermi energy shift (Ry) =     4.4171E-03     0.0000E+00

      iter #   5 total cpu time :  8312.8 secs   av.it.:  12.2
      thresh= 4.621E-07 alpha_mix =  0.300 |ddv_scf|^2 =  1.788E-12

     Pert. #  1: Fermi energy shift (Ry) =     4.3217E-03     0.0000E+00

      iter #   6 total cpu time :  8352.1 secs   av.it.:  12.0
      thresh= 1.337E-07 alpha_mix =  0.300 |ddv_scf|^2 =  2.127E-13

     Pert. #  1: Fermi energy shift (Ry) =     4.3015E-03     0.0000E+00

      iter #   7 total cpu time :  8391.2 secs   av.it.:  11.9
      thresh= 4.612E-08 alpha_mix =  0.300 |ddv_scf|^2 =  2.033E-14

     Pert. #  1: Fermi energy shift (Ry) =     4.3008E-03     0.0000E+00

      iter #   8 total cpu time :  8429.5 secs   av.it.:  11.4
      thresh= 1.426E-08 alpha_mix =  0.300 |ddv_scf|^2 =  6.482E-15

     End of self-consistent calculation

     Convergence has been achieved 


     Representation #  29 mode #  29

     Self-consistent Calculation

     Pert. #  1: Fermi energy shift (Ry) =    -1.1490E-03     0.0000E+00

      iter #   1 total cpu time :  8458.7 secs   av.it.:   4.7
      thresh= 1.000E-02 alpha_mix =  0.300 |ddv_scf|^2 =  4.185E-08

     Pert. #  1: Fermi energy shift (Ry) =     1.6689E-03     0.0000E+00

      iter #   2 total cpu time :  8496.3 secs   av.it.:  11.3
      thresh= 2.046E-05 alpha_mix =  0.300 |ddv_scf|^2 =  8.582E-09

     Pert. #  1: Fermi energy shift (Ry) =     4.2270E-03     0.0000E+00

      iter #   3 total cpu time :  8536.0 secs   av.it.:  12.1
      thresh= 9.264E-06 alpha_mix =  0.300 |ddv_scf|^2 =  2.475E-10

     Pert. #  1: Fermi energy shift (Ry) =     4.5926E-03     0.0000E+00

      iter #   4 total cpu time :  8575.7 secs   av.it.:  12.2
      thresh= 1.573E-06 alpha_mix =  0.300 |ddv_scf|^2 =  2.135E-11

     Pert. #  1: Fermi energy shift (Ry) =     4.4269E-03     0.0000E+00

      iter #   5 total cpu time :  8615.6 secs   av.it.:  12.2
      thresh= 4.621E-07 alpha_mix =  0.300 |ddv_scf|^2 =  1.788E-12

     Pert. #  1: Fermi energy shift (Ry) =     4.3316E-03     0.0000E+00

      iter #   6 total cpu time :  8654.6 secs   av.it.:  12.0
      thresh= 1.337E-07 alpha_mix =  0.300 |ddv_scf|^2 =  2.130E-13

     Pert. #  1: Fermi energy shift (Ry) =     4.3114E-03     0.0000E+00

      iter #   7 total cpu time :  8693.6 secs   av.it.:  11.9
      thresh= 4.616E-08 alpha_mix =  0.300 |ddv_scf|^2 =  2.033E-14

     Pert. #  1: Fermi energy shift (Ry) =     4.3107E-03     0.0000E+00

      iter #   8 total cpu time :  8731.2 secs   av.it.:  11.4
      thresh= 1.426E-08 alpha_mix =  0.300 |ddv_scf|^2 =  6.488E-15

     End of self-consistent calculation

     Convergence has been achieved 


     Representation #  30 mode #  30

     Self-consistent Calculation

     Pert. #  1: Fermi energy shift (Ry) =     1.1389E-03    -6.7763E-21

      iter #   1 total cpu time :  8760.4 secs   av.it.:   4.7
      thresh= 1.000E-02 alpha_mix =  0.300 |ddv_scf|^2 =  4.185E-08

     Pert. #  1: Fermi energy shift (Ry) =    -1.6737E-03     1.6544E-24

      iter #   2 total cpu time :  8798.0 secs   av.it.:  11.3
      thresh= 2.046E-05 alpha_mix =  0.300 |ddv_scf|^2 =  8.582E-09

     Pert. #  1: Fermi energy shift (Ry) =    -4.2273E-03    -1.6544E-24

      iter #   3 total cpu time :  8837.7 secs   av.it.:  12.1
      thresh= 9.264E-06 alpha_mix =  0.300 |ddv_scf|^2 =  2.475E-10

     Pert. #  1: Fermi energy shift (Ry) =    -4.5932E-03     8.2718E-25

      iter #   4 total cpu time :  8877.7 secs   av.it.:  12.2
      thresh= 1.573E-06 alpha_mix =  0.300 |ddv_scf|^2 =  2.135E-11

     Pert. #  1: Fermi energy shift (Ry) =    -4.4276E-03     8.2718E-25

      iter #   5 total cpu time :  8917.6 secs   av.it.:  12.2
      thresh= 4.621E-07 alpha_mix =  0.300 |ddv_scf|^2 =  1.786E-12

     Pert. #  1: Fermi energy shift (Ry) =    -4.3324E-03     4.1359E-25

      iter #   6 total cpu time :  8957.5 secs   av.it.:  12.0
      thresh= 1.337E-07 alpha_mix =  0.300 |ddv_scf|^2 =  2.132E-13

     Pert. #  1: Fermi energy shift (Ry) =    -4.3121E-03     4.1359E-25

      iter #   7 total cpu time :  8996.4 secs   av.it.:  11.9
      thresh= 4.617E-08 alpha_mix =  0.300 |ddv_scf|^2 =  2.033E-14

     Pert. #  1: Fermi energy shift (Ry) =    -4.3114E-03     4.1359E-25

      iter #   8 total cpu time :  9034.3 secs   av.it.:  11.4
      thresh= 1.426E-08 alpha_mix =  0.300 |ddv_scf|^2 =  6.484E-15

     End of self-consistent calculation

     Convergence has been achieved 


     Representation #  31 mode #  31

     Self-consistent Calculation

     Pert. #  1: Fermi energy shift (Ry) =     1.1552E-03     0.0000E+00

      iter #   1 total cpu time :  9063.6 secs   av.it.:   4.7
      thresh= 1.000E-02 alpha_mix =  0.300 |ddv_scf|^2 =  4.185E-08

     Pert. #  1: Fermi energy shift (Ry) =    -1.6610E-03     0.0000E+00

      iter #   2 total cpu time :  9101.0 secs   av.it.:  11.3
      thresh= 2.046E-05 alpha_mix =  0.300 |ddv_scf|^2 =  8.582E-09

     Pert. #  1: Fermi energy shift (Ry) =    -4.2162E-03     0.0000E+00

      iter #   3 total cpu time :  9140.7 secs   av.it.:  12.1
      thresh= 9.264E-06 alpha_mix =  0.300 |ddv_scf|^2 =  2.475E-10

     Pert. #  1: Fermi energy shift (Ry) =    -4.5826E-03     0.0000E+00

      iter #   4 total cpu time :  9180.4 secs   av.it.:  12.2
      thresh= 1.573E-06 alpha_mix =  0.300 |ddv_scf|^2 =  2.136E-11

     Pert. #  1: Fermi energy shift (Ry) =    -4.4171E-03     0.0000E+00

      iter #   5 total cpu time :  9220.4 secs   av.it.:  12.2
      thresh= 4.621E-07 alpha_mix =  0.300 |ddv_scf|^2 =  1.788E-12

     Pert. #  1: Fermi energy shift (Ry) =    -4.3217E-03     0.0000E+00

      iter #   6 total cpu time :  9259.6 secs   av.it.:  12.0
      thresh= 1.337E-07 alpha_mix =  0.300 |ddv_scf|^2 =  2.127E-13

     Pert. #  1: Fermi energy shift (Ry) =    -4.3015E-03     0.0000E+00

      iter #   7 total cpu time :  9298.5 secs   av.it.:  11.9
      thresh= 4.612E-08 alpha_mix =  0.300 |ddv_scf|^2 =  2.033E-14

     Pert. #  1: Fermi energy shift (Ry) =    -4.3008E-03     0.0000E+00

      iter #   8 total cpu time :  9336.3 secs   av.it.:  11.4
      thresh= 1.426E-08 alpha_mix =  0.300 |ddv_scf|^2 =  6.482E-15

     End of self-consistent calculation

     Convergence has been achieved 


     Representation #  32 mode #  32

     Self-consistent Calculation

     Pert. #  1: Fermi energy shift (Ry) =     1.1490E-03     0.0000E+00

      iter #   1 total cpu time :  9365.7 secs   av.it.:   4.7
      thresh= 1.000E-02 alpha_mix =  0.300 |ddv_scf|^2 =  4.185E-08

     Pert. #  1: Fermi energy shift (Ry) =    -1.6689E-03     0.0000E+00

      iter #   2 total cpu time :  9403.1 secs   av.it.:  11.3
      thresh= 2.046E-05 alpha_mix =  0.300 |ddv_scf|^2 =  8.582E-09

     Pert. #  1: Fermi energy shift (Ry) =    -4.2270E-03     0.0000E+00

      iter #   3 total cpu time :  9442.7 secs   av.it.:  12.1
      thresh= 9.264E-06 alpha_mix =  0.300 |ddv_scf|^2 =  2.475E-10

     Pert. #  1: Fermi energy shift (Ry) =    -4.5926E-03     0.0000E+00

      iter #   4 total cpu time :  9482.6 secs   av.it.:  12.2
      thresh= 1.573E-06 alpha_mix =  0.300 |ddv_scf|^2 =  2.135E-11

     Pert. #  1: Fermi energy shift (Ry) =    -4.4269E-03     0.0000E+00

      iter #   5 total cpu time :  9523.3 secs   av.it.:  12.2
      thresh= 4.621E-07 alpha_mix =  0.300 |ddv_scf|^2 =  1.788E-12

     Pert. #  1: Fermi energy shift (Ry) =    -4.3316E-03     0.0000E+00

      iter #   6 total cpu time :  9562.6 secs   av.it.:  12.0
      thresh= 1.337E-07 alpha_mix =  0.300 |ddv_scf|^2 =  2.130E-13

     Pert. #  1: Fermi energy shift (Ry) =    -4.3114E-03     0.0000E+00

      iter #   7 total cpu time :  9601.5 secs   av.it.:  11.9
      thresh= 4.616E-08 alpha_mix =  0.300 |ddv_scf|^2 =  2.033E-14

     Pert. #  1: Fermi energy shift (Ry) =    -4.3106E-03     0.0000E+00

      iter #   8 total cpu time :  9639.3 secs   av.it.:  11.4
      thresh= 1.426E-08 alpha_mix =  0.300 |ddv_scf|^2 =  6.488E-15

     End of self-consistent calculation

     Convergence has been achieved 


     Representation #  33 mode #  33

     Self-consistent Calculation

     Pert. #  1: Fermi energy shift (Ry) =    -1.1389E-03    -6.7763E-21

      iter #   1 total cpu time :  9668.6 secs   av.it.:   4.7
      thresh= 1.000E-02 alpha_mix =  0.300 |ddv_scf|^2 =  4.185E-08

     Pert. #  1: Fermi energy shift (Ry) =     1.6737E-03     1.6544E-24

      iter #   2 total cpu time :  9706.2 secs   av.it.:  11.3
      thresh= 2.046E-05 alpha_mix =  0.300 |ddv_scf|^2 =  8.582E-09

     Pert. #  1: Fermi energy shift (Ry) =     4.2273E-03    -1.6544E-24

      iter #   3 total cpu time :  9745.9 secs   av.it.:  12.1
      thresh= 9.264E-06 alpha_mix =  0.300 |ddv_scf|^2 =  2.475E-10

     Pert. #  1: Fermi energy shift (Ry) =     4.5932E-03     8.2718E-25

      iter #   4 total cpu time :  9785.6 secs   av.it.:  12.2
      thresh= 1.573E-06 alpha_mix =  0.300 |ddv_scf|^2 =  2.135E-11

     Pert. #  1: Fermi energy shift (Ry) =     4.4276E-03     8.2718E-25

      iter #   5 total cpu time :  9825.3 secs   av.it.:  12.2
      thresh= 4.621E-07 alpha_mix =  0.300 |ddv_scf|^2 =  1.786E-12

     Pert. #  1: Fermi energy shift (Ry) =     4.3324E-03     4.1359E-25

      iter #   6 total cpu time :  9864.6 secs   av.it.:  12.0
      thresh= 1.337E-07 alpha_mix =  0.300 |ddv_scf|^2 =  2.132E-13

     Pert. #  1: Fermi energy shift (Ry) =     4.3121E-03     4.1359E-25

      iter #   7 total cpu time :  9903.7 secs   av.it.:  11.9
      thresh= 4.617E-08 alpha_mix =  0.300 |ddv_scf|^2 =  2.033E-14

     Pert. #  1: Fermi energy shift (Ry) =     4.3114E-03     4.1359E-25

      iter #   8 total cpu time :  9941.5 secs   av.it.:  11.4
      thresh= 1.426E-08 alpha_mix =  0.300 |ddv_scf|^2 =  6.484E-15

     End of self-consistent calculation

     Convergence has been achieved 

     Number of q in the star =    1
     List of q in the star:
          1   0.000000000   0.000000000   0.000000000

     Diagonalizing the dynamical matrix

     q = (    0.000000000   0.000000000   0.000000000 ) 

 **************************************************************************
     freq (    1) =       0.145980 [THz] =       4.869355 [cm-1]
     freq (    2) =       0.145993 [THz] =       4.869803 [cm-1]
     freq (    3) =       0.146035 [THz] =       4.871213 [cm-1]
     freq (    4) =      27.570965 [THz] =     919.668415 [cm-1]
     freq (    5) =      27.571229 [THz] =     919.677203 [cm-1]
     freq (    6) =      27.581779 [THz] =     920.029125 [cm-1]
     freq (    7) =      30.852034 [THz] =    1029.113084 [cm-1]
     freq (    8) =      30.852234 [THz] =    1029.119744 [cm-1]
     freq (    9) =      30.854163 [THz] =    1029.184082 [cm-1]
     freq (   10) =      34.176649 [THz] =    1140.010309 [cm-1]
     freq (   11) =      34.177487 [THz] =    1140.038266 [cm-1]
     freq (   12) =      34.181326 [THz] =    1140.166309 [cm-1]
     freq (   13) =      37.327106 [THz] =    1245.098225 [cm-1]
     freq (   14) =      37.327412 [THz] =    1245.108430 [cm-1]
     freq (   15) =      37.339776 [THz] =    1245.520849 [cm-1]
     freq (   16) =      37.576868 [THz] =    1253.429394 [cm-1]
     freq (   17) =      37.578633 [THz] =    1253.488285 [cm-1]
     freq (   18) =      37.579403 [THz] =    1253.513966 [cm-1]
     freq (   19) =      41.989721 [THz] =    1400.626319 [cm-1]
     freq (   20) =      41.990027 [THz] =    1400.636538 [cm-1]
     freq (   21) =      41.992709 [THz] =    1400.725986 [cm-1]
     freq (   22) =      43.401808 [THz] =    1447.728475 [cm-1]
     freq (   23) =      43.402239 [THz] =    1447.742854 [cm-1]
     freq (   24) =      48.810888 [THz] =    1628.155970 [cm-1]
     freq (   25) =      48.812114 [THz] =    1628.196860 [cm-1]
     freq (   26) =      53.382935 [THz] =    1780.663034 [cm-1]
     freq (   27) =      53.383050 [THz] =    1780.666871 [cm-1]
     freq (   28) =      53.388493 [THz] =    1780.848436 [cm-1]
     freq (   29) =      53.613861 [THz] =    1788.365903 [cm-1]
     freq (   30) =      53.614368 [THz] =    1788.382823 [cm-1]
     freq (   31) =      53.614860 [THz] =    1788.399217 [cm-1]
     freq (   32) =      56.393868 [THz] =    1881.096947 [cm-1]
     freq (   33) =      68.455117 [THz] =    2283.416929 [cm-1]
 **************************************************************************

     Mode symmetry, C_1 (1)     point group:

     freq (   1-   1) =          4.9  [cm-1]   --> A               I+R
     freq (   2-   2) =          4.9  [cm-1]   --> A               I+R
     freq (   3-   3) =          4.9  [cm-1]   --> A               I+R
     freq (   4-   4) =        919.7  [cm-1]   --> A               I+R
     freq (   5-   5) =        919.7  [cm-1]   --> A               I+R
     freq (   6-   6) =        920.0  [cm-1]   --> A               I+R
     freq (   7-   7) =       1029.1  [cm-1]   --> A               I+R
     freq (   8-   8) =       1029.1  [cm-1]   --> A               I+R
     freq (   9-   9) =       1029.2  [cm-1]   --> A               I+R
     freq (  10-  10) =       1140.0  [cm-1]   --> A               I+R
     freq (  11-  11) =       1140.0  [cm-1]   --> A               I+R
     freq (  12-  12) =       1140.2  [cm-1]   --> A               I+R
     freq (  13-  13) =       1245.1  [cm-1]   --> A               I+R
     freq (  14-  14) =       1245.1  [cm-1]   --> A               I+R
     freq (  15-  15) =       1245.5  [cm-1]   --> A               I+R
     freq (  16-  16) =       1253.4  [cm-1]   --> A               I+R
     freq (  17-  17) =       1253.5  [cm-1]   --> A               I+R
     freq (  18-  18) =       1253.5  [cm-1]   --> A               I+R
     freq (  19-  19) =       1400.6  [cm-1]   --> A               I+R
     freq (  20-  20) =       1400.6  [cm-1]   --> A               I+R
     freq (  21-  21) =       1400.7  [cm-1]   --> A               I+R
     freq (  22-  22) =       1447.7  [cm-1]   --> A               I+R
     freq (  23-  23) =       1447.7  [cm-1]   --> A               I+R
     freq (  24-  24) =       1628.2  [cm-1]   --> A               I+R
     freq (  25-  25) =       1628.2  [cm-1]   --> A               I+R
     freq (  26-  26) =       1780.7  [cm-1]   --> A               I+R
     freq (  27-  27) =       1780.7  [cm-1]   --> A               I+R
     freq (  28-  28) =       1780.8  [cm-1]   --> A               I+R
     freq (  29-  29) =       1788.4  [cm-1]   --> A               I+R
     freq (  30-  30) =       1788.4  [cm-1]   --> A               I+R
     freq (  31-  31) =       1788.4  [cm-1]   --> A               I+R
     freq (  32-  32) =       1881.1  [cm-1]   --> A               I+R
     freq (  33-  33) =       2283.4  [cm-1]   --> A               I+R

     Gaussian Broadening:   0.005 Ry, ngauss=   0
     DOS =  4.030418 states/spin/Ry/Unit Cell at Ef= 20.471197 eV
     double delta at Ef =610.717791
     lambda(    1)=  0.0000   gamma=    0.00 GHz
     lambda(    2)=  0.0000   gamma=    0.00 GHz
     lambda(    3)=  0.0000   gamma=    0.00 GHz
     lambda(    4)=  1.1516   gamma= 3369.34 GHz
     lambda(    5)=  1.1529   gamma= 3373.24 GHz
     lambda(    6)=  1.1469   gamma= 3358.04 GHz
     lambda(    7)=  0.0000   gamma=    0.00 GHz
     lambda(    8)=  0.0000   gamma=    0.00 GHz
     lambda(    9)=  0.0000   gamma=    0.00 GHz
     lambda(   10)=  1.9969   gamma= 8977.19 GHz
     lambda(   11)=  1.9957   gamma= 8972.17 GHz
     lambda(   12)=  1.9959   gamma= 8975.36 GHz
     lambda(   13)=  0.0000   gamma=    0.00 GHz
     lambda(   14)=  0.0000   gamma=    0.00 GHz
     lambda(   15)=  0.0000   gamma=    0.00 GHz
     lambda(   16)=  0.0000   gamma=    0.00 GHz
     lambda(   17)=  0.0000   gamma=    0.00 GHz
     lambda(   18)=  0.0000   gamma=    0.00 GHz
     lambda(   19)=  0.0024   gamma=   16.45 GHz
     lambda(   20)=  0.0024   gamma=   16.49 GHz
     lambda(   21)=  0.0024   gamma=   16.35 GHz
     lambda(   22)=  0.0000   gamma=    0.00 GHz
     lambda(   23)=  0.0000   gamma=    0.00 GHz
     lambda(   24)=  3.8017   gamma=34861.04 GHz
     lambda(   25)=  3.7981   gamma=34829.55 GHz
     lambda(   26)=  0.1885   gamma= 2067.05 GHz
     lambda(   27)=  0.1887   gamma= 2069.45 GHz
     lambda(   28)=  0.1888   gamma= 2071.11 GHz
     lambda(   29)=  0.0000   gamma=    0.00 GHz
     lambda(   30)=  0.0000   gamma=    0.00 GHz
     lambda(   31)=  0.0000   gamma=    0.00 GHz
     lambda(   32)=  0.0000   gamma=    0.00 GHz
     lambda(   33)=  0.9336   gamma=16838.14 GHz

     Gaussian Broadening:   0.010 Ry, ngauss=   0
     DOS =  2.299593 states/spin/Ry/Unit Cell at Ef= 20.467416 eV
     double delta at Ef =241.481759
     lambda(    1)=  0.0000   gamma=    0.00 GHz
     lambda(    2)=  0.0000   gamma=    0.00 GHz
     lambda(    3)=  0.0000   gamma=    0.00 GHz
     lambda(    4)=  0.6808   gamma= 1136.46 GHz
     lambda(    5)=  0.6811   gamma= 1136.95 GHz
     lambda(    6)=  0.6781   gamma= 1132.87 GHz
     lambda(    7)=  0.0078   gamma=   16.23 GHz
     lambda(    8)=  0.0078   gamma=   16.23 GHz
     lambda(    9)=  0.0078   gamma=   16.24 GHz
     lambda(   10)=  1.2533   gamma= 3214.66 GHz
     lambda(   11)=  1.2531   gamma= 3214.35 GHz
     lambda(   12)=  1.2535   gamma= 3216.16 GHz
     lambda(   13)=  0.0014   gamma=    4.27 GHz
     lambda(   14)=  0.0014   gamma=    4.27 GHz
     lambda(   15)=  0.0014   gamma=    4.30 GHz
     lambda(   16)=  0.0397   gamma=  123.23 GHz
     lambda(   17)=  0.0398   gamma=  123.34 GHz
     lambda(   18)=  0.0398   gamma=  123.42 GHz
     lambda(   19)=  0.0053   gamma=   20.35 GHz
     lambda(   20)=  0.0053   gamma=   20.39 GHz
     lambda(   21)=  0.0053   gamma=   20.40 GHz
     lambda(   22)=  0.0002   gamma=    0.70 GHz
     lambda(   23)=  0.0002   gamma=    0.70 GHz
     lambda(   24)=  2.4361   gamma=12745.26 GHz
     lambda(   25)=  2.4356   gamma=12743.42 GHz
     lambda(   26)=  0.1375   gamma=  860.21 GHz
     lambda(   27)=  0.1375   gamma=  860.42 GHz
     lambda(   28)=  0.1373   gamma=  859.57 GHz
     lambda(   29)=  0.0048   gamma=   30.54 GHz
     lambda(   30)=  0.0048   gamma=   30.54 GHz
     lambda(   31)=  0.0048   gamma=   30.59 GHz
     lambda(   32)=  0.0000   gamma=    0.00 GHz
     lambda(   33)=  0.5880   gamma= 6050.51 GHz

     Gaussian Broadening:   0.015 Ry, ngauss=   0
     DOS =  2.325827 states/spin/Ry/Unit Cell at Ef= 20.452556 eV
     double delta at Ef =173.060109
     lambda(    1)=  0.0000   gamma=    0.01 GHz
     lambda(    2)=  0.0000   gamma=    0.01 GHz
     lambda(    3)=  0.0000   gamma=    0.01 GHz
     lambda(    4)=  0.4040   gamma=  682.15 GHz
     lambda(    5)=  0.4042   gamma=  682.36 GHz
     lambda(    6)=  0.4025   gamma=  680.12 GHz
     lambda(    7)=  0.0267   gamma=   56.55 GHz
     lambda(    8)=  0.0267   gamma=   56.55 GHz
     lambda(    9)=  0.0267   gamma=   56.53 GHz
     lambda(   10)=  0.7454   gamma= 1933.67 GHz
     lambda(   11)=  0.7453   gamma= 1933.58 GHz
     lambda(   12)=  0.7456   gamma= 1934.74 GHz
     lambda(   13)=  0.0057   gamma=   17.68 GHz
     lambda(   14)=  0.0057   gamma=   17.69 GHz
     lambda(   15)=  0.0057   gamma=   17.76 GHz
     lambda(   16)=  0.1364   gamma=  427.75 GHz
     lambda(   17)=  0.1364   gamma=  427.89 GHz
     lambda(   18)=  0.1365   gamma=  428.00 GHz
     lambda(   19)=  0.0105   gamma=   41.20 GHz
     lambda(   20)=  0.0105   gamma=   41.22 GHz
     lambda(   21)=  0.0105   gamma=   41.26 GHz
     lambda(   22)=  0.0006   gamma=    2.43 GHz
     lambda(   23)=  0.0006   gamma=    2.43 GHz
     lambda(   24)=  1.4563   gamma= 7706.14 GHz
     lambda(   25)=  1.4562   gamma= 7705.89 GHz
     lambda(   26)=  0.1267   gamma=  802.20 GHz
     lambda(   27)=  0.1267   gamma=  802.20 GHz
     lambda(   28)=  0.1266   gamma=  801.48 GHz
     lambda(   29)=  0.0166   gamma=  105.94 GHz
     lambda(   30)=  0.0166   gamma=  105.94 GHz
     lambda(   31)=  0.0166   gamma=  106.03 GHz
     lambda(   32)=  0.0000   gamma=    0.00 GHz
     lambda(   33)=  0.3487   gamma= 3629.12 GHz

     Gaussian Broadening:   0.020 Ry, ngauss=   0
     DOS =  3.036822 states/spin/Ry/Unit Cell at Ef= 20.435898 eV
     double delta at Ef =153.946619
     lambda(    1)=  0.0000   gamma=    0.02 GHz
     lambda(    2)=  0.0000   gamma=    0.02 GHz
     lambda(    3)=  0.0000   gamma=    0.02 GHz
     lambda(    4)=  0.2870   gamma=  632.66 GHz
     lambda(    5)=  0.2871   gamma=  632.83 GHz
     lambda(    6)=  0.2862   gamma=  631.40 GHz
     lambda(    7)=  0.0253   gamma=   69.86 GHz
     lambda(    8)=  0.0253   gamma=   69.86 GHz
     lambda(    9)=  0.0253   gamma=   69.81 GHz
     lambda(   10)=  0.4648   gamma= 1574.34 GHz
     lambda(   11)=  0.4648   gamma= 1574.34 GHz
     lambda(   12)=  0.4649   gamma= 1575.22 GHz
     lambda(   13)=  0.0114   gamma=   46.03 GHz
     lambda(   14)=  0.0114   gamma=   46.05 GHz
     lambda(   15)=  0.0114   gamma=   46.16 GHz
     lambda(   16)=  0.1254   gamma=  513.34 GHz
     lambda(   17)=  0.1254   gamma=  513.42 GHz
     lambda(   18)=  0.1254   gamma=  513.50 GHz
     lambda(   19)=  0.0100   gamma=   51.02 GHz
     lambda(   20)=  0.0100   gamma=   51.03 GHz
     lambda(   21)=  0.0100   gamma=   51.06 GHz
     lambda(   22)=  0.0005   gamma=    2.98 GHz
     lambda(   23)=  0.0005   gamma=    2.98 GHz
     lambda(   24)=  0.8633   gamma= 5965.02 GHz
     lambda(   25)=  0.8633   gamma= 5965.02 GHz
     lambda(   26)=  0.1011   gamma=  835.89 GHz
     lambda(   27)=  0.1011   gamma=  835.90 GHz
     lambda(   28)=  0.1012   gamma=  836.34 GHz
     lambda(   29)=  0.0152   gamma=  126.81 GHz
     lambda(   30)=  0.0152   gamma=  126.82 GHz
     lambda(   31)=  0.0152   gamma=  126.89 GHz
     lambda(   32)=  0.0000   gamma=    0.00 GHz
     lambda(   33)=  0.2204   gamma= 2995.08 GHz

     Gaussian Broadening:   0.025 Ry, ngauss=   0
     DOS =  3.858175 states/spin/Ry/Unit Cell at Ef= 20.427028 eV
     double delta at Ef =145.018763
     lambda(    1)=  0.0000   gamma=    0.02 GHz
     lambda(    2)=  0.0000   gamma=    0.02 GHz
     lambda(    3)=  0.0000   gamma=    0.02 GHz
     lambda(    4)=  0.2297   gamma=  643.22 GHz
     lambda(    5)=  0.2297   gamma=  643.37 GHz
     lambda(    6)=  0.2291   gamma=  642.16 GHz
     lambda(    7)=  0.0206   gamma=   72.11 GHz
     lambda(    8)=  0.0206   gamma=   72.11 GHz
     lambda(    9)=  0.0205   gamma=   72.04 GHz
     lambda(   10)=  0.3289   gamma= 1415.52 GHz
     lambda(   11)=  0.3289   gamma= 1415.56 GHz
     lambda(   12)=  0.3290   gamma= 1416.37 GHz
     lambda(   13)=  0.0153   gamma=   78.57 GHz
     lambda(   14)=  0.0153   gamma=   78.60 GHz
     lambda(   15)=  0.0153   gamma=   78.74 GHz
     lambda(   16)=  0.0981   gamma=  510.12 GHz
     lambda(   17)=  0.0981   gamma=  510.18 GHz
     lambda(   18)=  0.0981   gamma=  510.23 GHz
     lambda(   19)=  0.0084   gamma=   54.57 GHz
     lambda(   20)=  0.0084   gamma=   54.58 GHz
     lambda(   21)=  0.0084   gamma=   54.59 GHz
     lambda(   22)=  0.0005   gamma=    3.72 GHz
[...]

      iter #   8 total cpu time : 13738.4 secs   av.it.:  12.1
      thresh= 1.165E-07 alpha_mix =  0.300 |ddv_scf|^2 =  1.384E-13

      iter #   9 total cpu time : 13777.9 secs   av.it.:  12.1
      thresh= 3.720E-08 alpha_mix =  0.300 |ddv_scf|^2 =  3.122E-14

      iter #  10 total cpu time : 13814.7 secs   av.it.:  11.2
      thresh= 1.767E-08 alpha_mix =  0.300 |ddv_scf|^2 =  8.517E-15

     End of self-consistent calculation

     Convergence has been achieved 


     Representation #  11 mode #  11

     Self-consistent Calculation

      iter #   1 total cpu time : 13842.2 secs   av.it.:   4.9
      thresh= 1.000E-02 alpha_mix =  0.300 |ddv_scf|^2 =  7.394E-07

      iter #   2 total cpu time : 13878.9 secs   av.it.:  11.0
      thresh= 8.599E-05 alpha_mix =  0.300 |ddv_scf|^2 =  3.066E-07

      iter #   3 total cpu time : 13913.7 secs   av.it.:  10.4
      thresh= 5.537E-05 alpha_mix =  0.300 |ddv_scf|^2 =  3.611E-09

      iter #   4 total cpu time : 13953.1 secs   av.it.:  12.1
      thresh= 6.009E-06 alpha_mix =  0.300 |ddv_scf|^2 =  2.001E-10

      iter #   5 total cpu time : 13992.4 secs   av.it.:  12.0
      thresh= 1.415E-06 alpha_mix =  0.300 |ddv_scf|^2 =  4.028E-11

      iter #   6 total cpu time : 14030.8 secs   av.it.:  11.7
      thresh= 6.347E-07 alpha_mix =  0.300 |ddv_scf|^2 =  5.648E-12

      iter #   7 total cpu time : 14068.6 secs   av.it.:  11.5
      thresh= 2.376E-07 alpha_mix =  0.300 |ddv_scf|^2 =  1.358E-12

      iter #   8 total cpu time : 14108.1 secs   av.it.:  12.1
      thresh= 1.165E-07 alpha_mix =  0.300 |ddv_scf|^2 =  1.388E-13

      iter #   9 total cpu time : 14147.7 secs   av.it.:  12.1
      thresh= 3.725E-08 alpha_mix =  0.300 |ddv_scf|^2 =  3.134E-14

      iter #  10 total cpu time : 14184.5 secs   av.it.:  11.2
      thresh= 1.770E-08 alpha_mix =  0.300 |ddv_scf|^2 =  8.527E-15

     End of self-consistent calculation

     Convergence has been achieved 


     Representation #  12 mode #  12

     Self-consistent Calculation

      iter #   1 total cpu time : 14212.1 secs   av.it.:   4.9
      thresh= 1.000E-02 alpha_mix =  0.300 |ddv_scf|^2 =  7.969E-07

      iter #   2 total cpu time : 14249.1 secs   av.it.:  11.0
      thresh= 8.927E-05 alpha_mix =  0.300 |ddv_scf|^2 =  3.412E-07

      iter #   3 total cpu time : 14284.4 secs   av.it.:  10.4
      thresh= 5.841E-05 alpha_mix =  0.300 |ddv_scf|^2 =  3.450E-09

      iter #   4 total cpu time : 14324.4 secs   av.it.:  12.1
      thresh= 5.874E-06 alpha_mix =  0.300 |ddv_scf|^2 =  1.952E-10

      iter #   5 total cpu time : 14363.8 secs   av.it.:  12.0
      thresh= 1.397E-06 alpha_mix =  0.300 |ddv_scf|^2 =  4.012E-11

      iter #   6 total cpu time : 14402.3 secs   av.it.:  11.7
      thresh= 6.334E-07 alpha_mix =  0.300 |ddv_scf|^2 =  5.205E-12

      iter #   7 total cpu time : 14439.7 secs   av.it.:  11.4
      thresh= 2.281E-07 alpha_mix =  0.300 |ddv_scf|^2 =  1.441E-12

      iter #   8 total cpu time : 14479.5 secs   av.it.:  12.2
      thresh= 1.201E-07 alpha_mix =  0.300 |ddv_scf|^2 =  6.225E-14

      iter #   9 total cpu time : 14517.7 secs   av.it.:  11.6
      thresh= 2.495E-08 alpha_mix =  0.300 |ddv_scf|^2 =  1.975E-14

      iter #  10 total cpu time : 14554.9 secs   av.it.:  11.3
      thresh= 1.405E-08 alpha_mix =  0.300 |ddv_scf|^2 =  7.955E-15

     End of self-consistent calculation

     Convergence has been achieved 


     Representation #  13 mode #  13

     Self-consistent Calculation

      iter #   1 total cpu time : 14582.5 secs   av.it.:   4.9
      thresh= 1.000E-02 alpha_mix =  0.300 |ddv_scf|^2 =  7.394E-07

      iter #   2 total cpu time : 14619.1 secs   av.it.:  11.0
      thresh= 8.599E-05 alpha_mix =  0.300 |ddv_scf|^2 =  3.066E-07

      iter #   3 total cpu time : 14654.0 secs   av.it.:  10.4
      thresh= 5.537E-05 alpha_mix =  0.300 |ddv_scf|^2 =  3.611E-09

      iter #   4 total cpu time : 14693.4 secs   av.it.:  12.1
      thresh= 6.009E-06 alpha_mix =  0.300 |ddv_scf|^2 =  2.001E-10

      iter #   5 total cpu time : 14732.7 secs   av.it.:  12.0
      thresh= 1.415E-06 alpha_mix =  0.300 |ddv_scf|^2 =  4.028E-11

      iter #   6 total cpu time : 14771.5 secs   av.it.:  11.7
      thresh= 6.347E-07 alpha_mix =  0.300 |ddv_scf|^2 =  5.647E-12

      iter #   7 total cpu time : 14809.4 secs   av.it.:  11.5
      thresh= 2.376E-07 alpha_mix =  0.300 |ddv_scf|^2 =  1.358E-12

      iter #   8 total cpu time : 14849.3 secs   av.it.:  12.1
      thresh= 1.165E-07 alpha_mix =  0.300 |ddv_scf|^2 =  1.384E-13

      iter #   9 total cpu time : 14889.0 secs   av.it.:  12.1
      thresh= 3.720E-08 alpha_mix =  0.300 |ddv_scf|^2 =  3.122E-14

      iter #  10 total cpu time : 14926.0 secs   av.it.:  11.2
      thresh= 1.767E-08 alpha_mix =  0.300 |ddv_scf|^2 =  8.517E-15

     End of self-consistent calculation

     Convergence has been achieved 


     Representation #  14 mode #  14

     Self-consistent Calculation

      iter #   1 total cpu time : 14953.7 secs   av.it.:   4.9
      thresh= 1.000E-02 alpha_mix =  0.300 |ddv_scf|^2 =  7.394E-07

      iter #   2 total cpu time : 14990.3 secs   av.it.:  11.0
      thresh= 8.599E-05 alpha_mix =  0.300 |ddv_scf|^2 =  3.066E-07

      iter #   3 total cpu time : 15025.2 secs   av.it.:  10.4
      thresh= 5.537E-05 alpha_mix =  0.300 |ddv_scf|^2 =  3.611E-09

      iter #   4 total cpu time : 15064.7 secs   av.it.:  12.1
      thresh= 6.009E-06 alpha_mix =  0.300 |ddv_scf|^2 =  2.001E-10

      iter #   5 total cpu time : 15104.2 secs   av.it.:  12.0
      thresh= 1.415E-06 alpha_mix =  0.300 |ddv_scf|^2 =  4.028E-11

      iter #   6 total cpu time : 15142.6 secs   av.it.:  11.7
      thresh= 6.347E-07 alpha_mix =  0.300 |ddv_scf|^2 =  5.648E-12

      iter #   7 total cpu time : 15180.4 secs   av.it.:  11.5
      thresh= 2.376E-07 alpha_mix =  0.300 |ddv_scf|^2 =  1.358E-12

      iter #   8 total cpu time : 15220.0 secs   av.it.:  12.1
      thresh= 1.165E-07 alpha_mix =  0.300 |ddv_scf|^2 =  1.388E-13

      iter #   9 total cpu time : 15259.6 secs   av.it.:  12.1
      thresh= 3.725E-08 alpha_mix =  0.300 |ddv_scf|^2 =  3.134E-14

      iter #  10 total cpu time : 15296.5 secs   av.it.:  11.2
      thresh= 1.770E-08 alpha_mix =  0.300 |ddv_scf|^2 =  8.527E-15

     End of self-consistent calculation

     Convergence has been achieved 


     Representation #  15 mode #  15

     Self-consistent Calculation

      iter #   1 total cpu time : 15324.1 secs   av.it.:   4.9
      thresh= 1.000E-02 alpha_mix =  0.300 |ddv_scf|^2 =  7.969E-07

      iter #   2 total cpu time : 15360.8 secs   av.it.:  11.0
      thresh= 8.927E-05 alpha_mix =  0.300 |ddv_scf|^2 =  3.412E-07

      iter #   3 total cpu time : 15396.4 secs   av.it.:  10.4
      thresh= 5.841E-05 alpha_mix =  0.300 |ddv_scf|^2 =  3.450E-09

      iter #   4 total cpu time : 15436.3 secs   av.it.:  12.1
      thresh= 5.874E-06 alpha_mix =  0.300 |ddv_scf|^2 =  1.952E-10

      iter #   5 total cpu time : 15475.6 secs   av.it.:  12.0
      thresh= 1.397E-06 alpha_mix =  0.300 |ddv_scf|^2 =  4.012E-11

      iter #   6 total cpu time : 15514.0 secs   av.it.:  11.7
      thresh= 6.334E-07 alpha_mix =  0.300 |ddv_scf|^2 =  5.205E-12

      iter #   7 total cpu time : 15551.4 secs   av.it.:  11.4
      thresh= 2.281E-07 alpha_mix =  0.300 |ddv_scf|^2 =  1.441E-12

      iter #   8 total cpu time : 15591.2 secs   av.it.:  12.2
      thresh= 1.201E-07 alpha_mix =  0.300 |ddv_scf|^2 =  6.225E-14

      iter #   9 total cpu time : 15629.5 secs   av.it.:  11.6
      thresh= 2.495E-08 alpha_mix =  0.300 |ddv_scf|^2 =  1.975E-14

      iter #  10 total cpu time : 15666.7 secs   av.it.:  11.3
      thresh= 1.405E-08 alpha_mix =  0.300 |ddv_scf|^2 =  7.955E-15

     End of self-consistent calculation

     Convergence has been achieved 


     Representation #  16 mode #  16

     Self-consistent Calculation

      iter #   1 total cpu time : 15694.2 secs   av.it.:   4.9
      thresh= 1.000E-02 alpha_mix =  0.300 |ddv_scf|^2 =  7.660E-07

      iter #   2 total cpu time : 15730.7 secs   av.it.:  10.9
      thresh= 8.752E-05 alpha_mix =  0.300 |ddv_scf|^2 =  3.386E-07

      iter #   3 total cpu time : 15765.2 secs   av.it.:  10.3
      thresh= 5.819E-05 alpha_mix =  0.300 |ddv_scf|^2 =  3.565E-09

      iter #   4 total cpu time : 15804.8 secs   av.it.:  12.1
      thresh= 5.971E-06 alpha_mix =  0.300 |ddv_scf|^2 =  1.830E-10

      iter #   5 total cpu time : 15843.6 secs   av.it.:  11.8
      thresh= 1.353E-06 alpha_mix =  0.300 |ddv_scf|^2 =  4.497E-11

      iter #   6 total cpu time : 15882.5 secs   av.it.:  11.8
      thresh= 6.706E-07 alpha_mix =  0.300 |ddv_scf|^2 =  5.596E-12

      iter #   7 total cpu time : 15920.1 secs   av.it.:  11.4
      thresh= 2.366E-07 alpha_mix =  0.300 |ddv_scf|^2 =  1.204E-12

      iter #   8 total cpu time : 15960.1 secs   av.it.:  12.3
      thresh= 1.097E-07 alpha_mix =  0.300 |ddv_scf|^2 =  7.838E-14

      iter #   9 total cpu time : 15998.2 secs   av.it.:  11.6
      thresh= 2.800E-08 alpha_mix =  0.300 |ddv_scf|^2 =  2.345E-14

      iter #  10 total cpu time : 16035.6 secs   av.it.:  11.4
      thresh= 1.531E-08 alpha_mix =  0.300 |ddv_scf|^2 =  7.460E-15

     End of self-consistent calculation

     Convergence has been achieved 


     Representation #  17 mode #  17

     Self-consistent Calculation

      iter #   1 total cpu time : 16063.1 secs   av.it.:   4.9
      thresh= 1.000E-02 alpha_mix =  0.300 |ddv_scf|^2 =  7.660E-07

      iter #   2 total cpu time : 16099.6 secs   av.it.:  10.9
      thresh= 8.752E-05 alpha_mix =  0.300 |ddv_scf|^2 =  3.385E-07

      iter #   3 total cpu time : 16134.3 secs   av.it.:  10.3
      thresh= 5.818E-05 alpha_mix =  0.300 |ddv_scf|^2 =  3.565E-09

      iter #   4 total cpu time : 16173.8 secs   av.it.:  12.1
      thresh= 5.971E-06 alpha_mix =  0.300 |ddv_scf|^2 =  1.830E-10

      iter #   5 total cpu time : 16212.6 secs   av.it.:  11.8
      thresh= 1.353E-06 alpha_mix =  0.300 |ddv_scf|^2 =  4.496E-11

      iter #   6 total cpu time : 16251.5 secs   av.it.:  11.8
      thresh= 6.705E-07 alpha_mix =  0.300 |ddv_scf|^2 =  5.596E-12

      iter #   7 total cpu time : 16289.1 secs   av.it.:  11.4
      thresh= 2.366E-07 alpha_mix =  0.300 |ddv_scf|^2 =  1.204E-12

      iter #   8 total cpu time : 16329.2 secs   av.it.:  12.3
      thresh= 1.097E-07 alpha_mix =  0.300 |ddv_scf|^2 =  7.813E-14

      iter #   9 total cpu time : 16367.2 secs   av.it.:  11.6
      thresh= 2.795E-08 alpha_mix =  0.300 |ddv_scf|^2 =  2.321E-14

      iter #  10 total cpu time : 16404.7 secs   av.it.:  11.4
      thresh= 1.524E-08 alpha_mix =  0.300 |ddv_scf|^2 =  7.423E-15

     End of self-consistent calculation

     Convergence has been achieved 


     Representation #  18 mode #  18

     Self-consistent Calculation

      iter #   1 total cpu time : 16432.2 secs   av.it.:   4.9
      thresh= 1.000E-02 alpha_mix =  0.300 |ddv_scf|^2 =  7.660E-07

      iter #   2 total cpu time : 16468.7 secs   av.it.:  10.9
      thresh= 8.752E-05 alpha_mix =  0.300 |ddv_scf|^2 =  3.385E-07

      iter #   3 total cpu time : 16503.5 secs   av.it.:  10.3
      thresh= 5.818E-05 alpha_mix =  0.300 |ddv_scf|^2 =  3.565E-09

      iter #   4 total cpu time : 16543.0 secs   av.it.:  12.1
      thresh= 5.971E-06 alpha_mix =  0.300 |ddv_scf|^2 =  1.830E-10

      iter #   5 total cpu time : 16581.9 secs   av.it.:  11.8
      thresh= 1.353E-06 alpha_mix =  0.300 |ddv_scf|^2 =  4.497E-11

      iter #   6 total cpu time : 16620.8 secs   av.it.:  11.8
      thresh= 6.706E-07 alpha_mix =  0.300 |ddv_scf|^2 =  5.599E-12

      iter #   7 total cpu time : 16658.4 secs   av.it.:  11.4
      thresh= 2.366E-07 alpha_mix =  0.300 |ddv_scf|^2 =  1.204E-12

      iter #   8 total cpu time : 16698.3 secs   av.it.:  12.3
      thresh= 1.097E-07 alpha_mix =  0.300 |ddv_scf|^2 =  7.825E-14

      iter #   9 total cpu time : 16736.3 secs   av.it.:  11.6
      thresh= 2.797E-08 alpha_mix =  0.300 |ddv_scf|^2 =  2.335E-14

      iter #  10 total cpu time : 16773.7 secs   av.it.:  11.4
      thresh= 1.528E-08 alpha_mix =  0.300 |ddv_scf|^2 =  7.447E-15

     End of self-consistent calculation

     Convergence has been achieved 


     Representation #  19 mode #  19

     Self-consistent Calculation

      iter #   1 total cpu time : 16801.2 secs   av.it.:   4.9
      thresh= 1.000E-02 alpha_mix =  0.300 |ddv_scf|^2 =  7.660E-07

      iter #   2 total cpu time : 16837.8 secs   av.it.:  10.9
      thresh= 8.752E-05 alpha_mix =  0.300 |ddv_scf|^2 =  3.386E-07

      iter #   3 total cpu time : 16872.4 secs   av.it.:  10.3
      thresh= 5.819E-05 alpha_mix =  0.300 |ddv_scf|^2 =  3.565E-09

      iter #   4 total cpu time : 16912.0 secs   av.it.:  12.1
      thresh= 5.971E-06 alpha_mix =  0.300 |ddv_scf|^2 =  1.830E-10

      iter #   5 total cpu time : 16950.8 secs   av.it.:  11.8
      thresh= 1.353E-06 alpha_mix =  0.300 |ddv_scf|^2 =  4.497E-11

      iter #   6 total cpu time : 16989.8 secs   av.it.:  11.8
      thresh= 6.706E-07 alpha_mix =  0.300 |ddv_scf|^2 =  5.596E-12

      iter #   7 total cpu time : 17027.6 secs   av.it.:  11.4
      thresh= 2.366E-07 alpha_mix =  0.300 |ddv_scf|^2 =  1.204E-12

      iter #   8 total cpu time : 17067.9 secs   av.it.:  12.3
      thresh= 1.097E-07 alpha_mix =  0.300 |ddv_scf|^2 =  7.838E-14

      iter #   9 total cpu time : 17105.9 secs   av.it.:  11.6
      thresh= 2.800E-08 alpha_mix =  0.300 |ddv_scf|^2 =  2.345E-14

      iter #  10 total cpu time : 17143.6 secs   av.it.:  11.4
      thresh= 1.531E-08 alpha_mix =  0.300 |ddv_scf|^2 =  7.460E-15

     End of self-consistent calculation

     Convergence has been achieved 


     Representation #  20 mode #  20

     Self-consistent Calculation

      iter #   1 total cpu time : 17171.5 secs   av.it.:   4.9
      thresh= 1.000E-02 alpha_mix =  0.300 |ddv_scf|^2 =  7.660E-07

      iter #   2 total cpu time : 17208.0 secs   av.it.:  10.9
      thresh= 8.752E-05 alpha_mix =  0.300 |ddv_scf|^2 =  3.385E-07

      iter #   3 total cpu time : 17243.9 secs   av.it.:  10.3
      thresh= 5.818E-05 alpha_mix =  0.300 |ddv_scf|^2 =  3.565E-09

      iter #   4 total cpu time : 17291.4 secs   av.it.:  12.1
      thresh= 5.971E-06 alpha_mix =  0.300 |ddv_scf|^2 =  1.830E-10

      iter #   5 total cpu time : 17379.0 secs   av.it.:  11.8
      thresh= 1.353E-06 alpha_mix =  0.300 |ddv_scf|^2 =  4.496E-11

      iter #   6 total cpu time : 17451.9 secs   av.it.:  11.8
      thresh= 6.705E-07 alpha_mix =  0.300 |ddv_scf|^2 =  5.596E-12

      iter #   7 total cpu time : 17531.1 secs   av.it.:  11.4
      thresh= 2.366E-07 alpha_mix =  0.300 |ddv_scf|^2 =  1.204E-12

      iter #   8 total cpu time : 17581.6 secs   av.it.:  12.3
      thresh= 1.097E-07 alpha_mix =  0.300 |ddv_scf|^2 =  7.813E-14

      iter #   9 total cpu time : 17639.3 secs   av.it.:  11.6
      thresh= 2.795E-08 alpha_mix =  0.300 |ddv_scf|^2 =  2.321E-14

      iter #  10 total cpu time : 17680.7 secs   av.it.:  11.4
      thresh= 1.524E-08 alpha_mix =  0.300 |ddv_scf|^2 =  7.423E-15

     End of self-consistent calculation

     Convergence has been achieved 


     Representation #  21 mode #  21

     Self-consistent Calculation

      iter #   1 total cpu time : 17713.2 secs   av.it.:   4.9
      thresh= 1.000E-02 alpha_mix =  0.300 |ddv_scf|^2 =  7.660E-07

      iter #   2 total cpu time : 17752.0 secs   av.it.:  10.9
      thresh= 8.752E-05 alpha_mix =  0.300 |ddv_scf|^2 =  3.385E-07

      iter #   3 total cpu time : 17788.6 secs   av.it.:  10.3
      thresh= 5.818E-05 alpha_mix =  0.300 |ddv_scf|^2 =  3.565E-09

      iter #   4 total cpu time : 17830.1 secs   av.it.:  12.1
      thresh= 5.971E-06 alpha_mix =  0.300 |ddv_scf|^2 =  1.830E-10

      iter #   5 total cpu time : 17871.8 secs   av.it.:  11.8
      thresh= 1.353E-06 alpha_mix =  0.300 |ddv_scf|^2 =  4.497E-11

      iter #   6 total cpu time : 17914.0 secs   av.it.:  11.8
      thresh= 6.706E-07 alpha_mix =  0.300 |ddv_scf|^2 =  5.599E-12

      iter #   7 total cpu time : 17954.0 secs   av.it.:  11.4
      thresh= 2.366E-07 alpha_mix =  0.300 |ddv_scf|^2 =  1.204E-12

      iter #   8 total cpu time : 17995.8 secs   av.it.:  12.3
      thresh= 1.097E-07 alpha_mix =  0.300 |ddv_scf|^2 =  7.825E-14

      iter #   9 total cpu time : 18034.7 secs   av.it.:  11.6
      thresh= 2.797E-08 alpha_mix =  0.300 |ddv_scf|^2 =  2.335E-14

      iter #  10 total cpu time : 18072.2 secs   av.it.:  11.4
      thresh= 1.528E-08 alpha_mix =  0.300 |ddv_scf|^2 =  7.447E-15

     End of self-consistent calculation

     Convergence has been achieved 


     Representation #  22 mode #  22

     Self-consistent Calculation

      iter #   1 total cpu time : 18099.8 secs   av.it.:   4.9
      thresh= 1.000E-02 alpha_mix =  0.300 |ddv_scf|^2 =  7.394E-07

      iter #   2 total cpu time : 18136.3 secs   av.it.:  11.0
      thresh= 8.599E-05 alpha_mix =  0.300 |ddv_scf|^2 =  3.066E-07

      iter #   3 total cpu time : 18171.2 secs   av.it.:  10.4
      thresh= 5.537E-05 alpha_mix =  0.300 |ddv_scf|^2 =  3.611E-09

      iter #   4 total cpu time : 18210.6 secs   av.it.:  12.1
      thresh= 6.009E-06 alpha_mix =  0.300 |ddv_scf|^2 =  2.001E-10

      iter #   5 total cpu time : 18249.9 secs   av.it.:  12.0
      thresh= 1.415E-06 alpha_mix =  0.300 |ddv_scf|^2 =  4.028E-11

      iter #   6 total cpu time : 18288.3 secs   av.it.:  11.7
      thresh= 6.347E-07 alpha_mix =  0.300 |ddv_scf|^2 =  5.647E-12

      iter #   7 total cpu time : 18326.1 secs   av.it.:  11.5
      thresh= 2.376E-07 alpha_mix =  0.300 |ddv_scf|^2 =  1.358E-12

      iter #   8 total cpu time : 18365.7 secs   av.it.:  12.1
      thresh= 1.166E-07 alpha_mix =  0.300 |ddv_scf|^2 =  1.385E-13

      iter #   9 total cpu time : 18405.6 secs   av.it.:  12.1
      thresh= 3.722E-08 alpha_mix =  0.300 |ddv_scf|^2 =  3.125E-14

      iter #  10 total cpu time : 18442.4 secs   av.it.:  11.2
      thresh= 1.768E-08 alpha_mix =  0.300 |ddv_scf|^2 =  8.522E-15

     End of self-consistent calculation

     Convergence has been achieved 


     Representation #  23 mode #  23

     Self-consistent Calculation

      iter #   1 total cpu time : 18469.9 secs   av.it.:   4.9
      thresh= 1.000E-02 alpha_mix =  0.300 |ddv_scf|^2 =  7.970E-07

      iter #   2 total cpu time : 18506.4 secs   av.it.:  11.0
      thresh= 8.927E-05 alpha_mix =  0.300 |ddv_scf|^2 =  3.413E-07

      iter #   3 total cpu time : 18541.1 secs   av.it.:  10.4
      thresh= 5.842E-05 alpha_mix =  0.300 |ddv_scf|^2 =  3.450E-09

      iter #   4 total cpu time : 18580.6 secs   av.it.:  12.1
      thresh= 5.874E-06 alpha_mix =  0.300 |ddv_scf|^2 =  1.952E-10

      iter #   5 total cpu time : 18619.7 secs   av.it.:  12.0
      thresh= 1.397E-06 alpha_mix =  0.300 |ddv_scf|^2 =  4.012E-11

      iter #   6 total cpu time : 18658.0 secs   av.it.:  11.7
      thresh= 6.334E-07 alpha_mix =  0.300 |ddv_scf|^2 =  5.205E-12

      iter #   7 total cpu time : 18695.5 secs   av.it.:  11.4
      thresh= 2.282E-07 alpha_mix =  0.300 |ddv_scf|^2 =  1.441E-12

      iter #   8 total cpu time : 18737.0 secs   av.it.:  12.3
      thresh= 1.200E-07 alpha_mix =  0.300 |ddv_scf|^2 =  6.274E-14

      iter #   9 total cpu time : 18777.9 secs   av.it.:  11.6
      thresh= 2.505E-08 alpha_mix =  0.300 |ddv_scf|^2 =  1.993E-14

      iter #  10 total cpu time : 18819.2 secs   av.it.:  11.3
      thresh= 1.412E-08 alpha_mix =  0.300 |ddv_scf|^2 =  8.006E-15

     End of self-consistent calculation

     Convergence has been achieved 


     Representation #  24 mode #  24

     Self-consistent Calculation

      iter #   1 total cpu time : 18849.9 secs   av.it.:   4.9
      thresh= 1.000E-02 alpha_mix =  0.300 |ddv_scf|^2 =  7.393E-07

      iter #   2 total cpu time : 18889.2 secs   av.it.:  11.0
      thresh= 8.599E-05 alpha_mix =  0.300 |ddv_scf|^2 =  3.066E-07
