
     Program PWSCF v.7.5 starts on 20Jun2026 at  6:53:32 

     This program is part of the open-source Quantum ESPRESSO suite
     for quantum simulation of materials; please cite
         "P. Giannozzi et al., J. Phys.:Condens. Matter 21 395502 (2009);
         "P. Giannozzi et al., J. Phys.:Condens. Matter 29 465901 (2017);
         "P. Giannozzi et al., J. Chem. Phys. 152 154105 (2020);
          URL http://www.quantum-espresso.org", 
     in publications or presentations arising from this work. More details at
     http://www.quantum-espresso.org/quote

     Parallel version (MPI & OpenMP), running on       2 processor cores
     Number of MPI processes:                 2
     Threads/MPI process:                     1

     MPI processes distributed on     1 nodes
     662 MiB available memory on the printing compute node when the environment starts

     Reading input from scf_up000.in

     Current dimensions of program PWSCF are:
     Max number of different atomic species (ntypx) = 10
     Max number of k-points (npk) =  40000
     Max angular momentum in pseudopotentials (lmaxx) =  4
     file B.pbe-n-rrkjus_psl.1.0.0.UPF: wavefunction(s)  2S renormalized

     R & G space division:  proc/nbgrp/npool/nimage =       2
     Subspace diagonalization in iterative solution of the eigenvalue problem:
     a serial algorithm will be used


     Parallelization info
     --------------------
     sticks:   dense  smooth     PW     G-vecs:    dense   smooth      PW
     Min         579     291     81                92765    32835    5241
     Max         580     292     82                92786    32850    5262
     Sum        1159     583    163               185551    65685   10503

     Using Slab Decomposition



     bravais-lattice index     =            4
     lattice parameter (alat)  =       6.4745  a.u.
     unit-cell volume          =    1372.3225 (a.u.)^3
     number of atoms/cell      =            6
     number of atomic types    =            1
     number of electrons       =        18.00
     number of Kohn-Sham states=           24
     kinetic-energy cutoff     =      50.0000  Ry
     charge density cutoff     =     400.0000  Ry
     scf convergence threshold =      1.0E-09
     mixing beta               =       0.3000
     number of iterations used =            8  local-TF  mixing
     Exchange-correlation= PBE
                           (   1   4   3   4   0   0   0)

     celldm(1)=   6.474450  celldm(2)=   0.000000  celldm(3)=   5.838710
     celldm(4)=   0.000000  celldm(5)=   0.000000  celldm(6)=   0.000000

     crystal axes: (cart. coord. in units of alat)
               a(1) = (   1.000000   0.000000   0.000000 )  
               a(2) = (  -0.500000   0.866025   0.000000 )  
               a(3) = (   0.000000   0.000000   5.838710 )  

     reciprocal axes: (cart. coord. in units 2 pi/alat)
               b(1) = (  1.000000  0.577350 -0.000000 )  
               b(2) = (  0.000000  1.154701  0.000000 )  
               b(3) = (  0.000000 -0.000000  0.171271 )  


     PseudoPot. # 1 for B  read from file:
     ./pseudo/B.pbe-n-rrkjus_psl.1.0.0.UPF
     MD5 check sum: 21bc42b8719306ef1fe0545c7dabf1c6
     Pseudo is Ultrasoft + core correction, Zval =  3.0
     Generated using &quot;atomic&quot; code by A. Dal Corso  v.6.3MaX
     Using radial grid of 1059 points,  4 beta functions with: 
                l(1) =   0
                l(2) =   0
                l(3) =   1
                l(4) =   1
     Q(r) pseudized with 0 coefficients 


     atomic species   valence    mass     pseudopotential
     B                 3.00    10.81100     B ( 1.00)

     24 Sym. Ops., with inversion, found


                                    s                        frac. trans.

      isym =  1     identity                                     

 cryst.   s( 1) = (     1          0          0      )
                  (     0          1          0      )
                  (     0          0          1      )

 cart.    s( 1) = (  1.0000000  0.0000000  0.0000000 )
                  (  0.0000000  1.0000000  0.0000000 )
                  (  0.0000000  0.0000000  1.0000000 )


      isym =  2     180 deg rotation - cart. axis [0,0,1]        

 cryst.   s( 2) = (    -1          0          0      )
                  (     0         -1          0      )
                  (     0          0          1      )

 cart.    s( 2) = ( -1.0000000  0.0000000  0.0000000 )
                  (  0.0000000 -1.0000000  0.0000000 )
                  (  0.0000000  0.0000000  1.0000000 )


      isym =  3     180 deg rotation - cart. axis [0,1,0]        

 cryst.   s( 3) = (    -1          0          0      )
                  (     1          1          0      )
                  (     0          0         -1      )

 cart.    s( 3) = ( -1.0000000  0.0000000  0.0000000 )
                  (  0.0000000  1.0000000  0.0000000 )
                  (  0.0000000  0.0000000 -1.0000000 )


      isym =  4     180 deg rotation - cart. axis [1,0,0]        

 cryst.   s( 4) = (     1          0          0      )
                  (    -1         -1          0      )
                  (     0          0         -1      )

 cart.    s( 4) = (  1.0000000  0.0000000  0.0000000 )
                  (  0.0000000 -1.0000000  0.0000000 )
                  (  0.0000000  0.0000000 -1.0000000 )


      isym =  5      60 deg rotation - cryst. axis [0,0,1]       

 cryst.   s( 5) = (     1          1          0      )
                  (    -1          0          0      )
                  (     0          0          1      )

 cart.    s( 5) = (  0.5000000 -0.8660254  0.0000000 )
                  (  0.8660254  0.5000000  0.0000000 )
                  (  0.0000000  0.0000000  1.0000000 )


      isym =  6      60 deg rotation - cryst. axis [0,0,-1]      

 cryst.   s( 6) = (     0         -1          0      )
                  (     1          1          0      )
                  (     0          0          1      )

 cart.    s( 6) = (  0.5000000  0.8660254  0.0000000 )
                  ( -0.8660254  0.5000000  0.0000000 )
                  (  0.0000000  0.0000000  1.0000000 )


      isym =  7     120 deg rotation - cryst. axis [0,0,1]       

 cryst.   s( 7) = (     0          1          0      )
                  (    -1         -1          0      )
                  (     0          0          1      )

 cart.    s( 7) = ( -0.5000000 -0.8660254  0.0000000 )
                  (  0.8660254 -0.5000000  0.0000000 )
                  (  0.0000000  0.0000000  1.0000000 )


      isym =  8     120 deg rotation - cryst. axis [0,0,-1]      

 cryst.   s( 8) = (    -1         -1          0      )
                  (     1          0          0      )
                  (     0          0          1      )

 cart.    s( 8) = ( -0.5000000  0.8660254  0.0000000 )
                  ( -0.8660254 -0.5000000  0.0000000 )
                  (  0.0000000  0.0000000  1.0000000 )


      isym =  9     180 deg rotation - cryst. axis [1,-1,0]      

 cryst.   s( 9) = (     0         -1          0      )
                  (    -1          0          0      )
                  (     0          0         -1      )

 cart.    s( 9) = (  0.5000000 -0.8660254  0.0000000 )
                  ( -0.8660254 -0.5000000  0.0000000 )
                  (  0.0000000  0.0000000 -1.0000000 )


      isym = 10     180 deg rotation - cryst. axis [2,1,0]       

 cryst.   s(10) = (     1          1          0      )
                  (     0         -1          0      )
                  (     0          0         -1      )

 cart.    s(10) = (  0.5000000  0.8660254  0.0000000 )
                  (  0.8660254 -0.5000000  0.0000000 )
                  (  0.0000000  0.0000000 -1.0000000 )


      isym = 11     180 deg rotation - cryst. axis [0,1,0]       

 cryst.   s(11) = (    -1         -1          0      )
                  (     0          1          0      )
                  (     0          0         -1      )

 cart.    s(11) = ( -0.5000000 -0.8660254  0.0000000 )
                  ( -0.8660254  0.5000000  0.0000000 )
                  (  0.0000000  0.0000000 -1.0000000 )


      isym = 12     180 deg rotation - cryst. axis [1,1,0]       

 cryst.   s(12) = (     0          1          0      )
                  (     1          0          0      )
                  (     0          0         -1      )

 cart.    s(12) = ( -0.5000000  0.8660254  0.0000000 )
                  (  0.8660254  0.5000000  0.0000000 )
                  (  0.0000000  0.0000000 -1.0000000 )


      isym = 13     inversion                                    

 cryst.   s(13) = (    -1          0          0      )
                  (     0         -1          0      )
                  (     0          0         -1      )

 cart.    s(13) = ( -1.0000000  0.0000000  0.0000000 )
                  (  0.0000000 -1.0000000  0.0000000 )
                  (  0.0000000  0.0000000 -1.0000000 )


      isym = 14     inv. 180 deg rotation - cart. axis [0,0,1]   

 cryst.   s(14) = (     1          0          0      )
                  (     0          1          0      )
                  (     0          0         -1      )

 cart.    s(14) = (  1.0000000  0.0000000  0.0000000 )
                  (  0.0000000  1.0000000  0.0000000 )
                  (  0.0000000  0.0000000 -1.0000000 )


      isym = 15     inv. 180 deg rotation - cart. axis [0,1,0]   

 cryst.   s(15) = (     1          0          0      )
                  (    -1         -1          0      )
                  (     0          0          1      )

 cart.    s(15) = (  1.0000000  0.0000000  0.0000000 )
                  (  0.0000000 -1.0000000  0.0000000 )
                  (  0.0000000  0.0000000  1.0000000 )


      isym = 16     inv. 180 deg rotation - cart. axis [1,0,0]   

 cryst.   s(16) = (    -1          0          0      )
                  (     1          1          0      )
                  (     0          0          1      )

 cart.    s(16) = ( -1.0000000  0.0000000  0.0000000 )
                  (  0.0000000  1.0000000  0.0000000 )
                  (  0.0000000  0.0000000  1.0000000 )


      isym = 17     inv.  60 deg rotation - cryst. axis [0,0,1]  

 cryst.   s(17) = (    -1         -1          0      )
                  (     1          0          0      )
                  (     0          0         -1      )

 cart.    s(17) = ( -0.5000000  0.8660254  0.0000000 )
                  ( -0.8660254 -0.5000000  0.0000000 )
                  (  0.0000000  0.0000000 -1.0000000 )


      isym = 18     inv.  60 deg rotation - cryst. axis [0,0,-1] 

 cryst.   s(18) = (     0          1          0      )
                  (    -1         -1          0      )
                  (     0          0         -1      )

 cart.    s(18) = ( -0.5000000 -0.8660254  0.0000000 )
                  (  0.8660254 -0.5000000  0.0000000 )
                  (  0.0000000  0.0000000 -1.0000000 )


      isym = 19     inv. 120 deg rotation - cryst. axis [0,0,1]  

 cryst.   s(19) = (     0         -1          0      )
                  (     1          1          0      )
                  (     0          0         -1      )

 cart.    s(19) = (  0.5000000  0.8660254  0.0000000 )
                  ( -0.8660254  0.5000000  0.0000000 )
                  (  0.0000000  0.0000000 -1.0000000 )


      isym = 20     inv. 120 deg rotation - cryst. axis [0,0,-1] 

 cryst.   s(20) = (     1          1          0      )
                  (    -1          0          0      )
                  (     0          0         -1      )

 cart.    s(20) = (  0.5000000 -0.8660254  0.0000000 )
                  (  0.8660254  0.5000000  0.0000000 )
                  (  0.0000000  0.0000000 -1.0000000 )


      isym = 21     inv. 180 deg rotation - cryst. axis [1,-1,0] 

 cryst.   s(21) = (     0          1          0      )
                  (     1          0          0      )
                  (     0          0          1      )

 cart.    s(21) = ( -0.5000000  0.8660254  0.0000000 )
                  (  0.8660254  0.5000000  0.0000000 )
                  (  0.0000000  0.0000000  1.0000000 )


      isym = 22     inv. 180 deg rotation - cryst. axis [2,1,0]  

 cryst.   s(22) = (    -1         -1          0      )
                  (     0          1          0      )
                  (     0          0          1      )

 cart.    s(22) = ( -0.5000000 -0.8660254  0.0000000 )
                  ( -0.8660254  0.5000000  0.0000000 )
                  (  0.0000000  0.0000000  1.0000000 )


      isym = 23     inv. 180 deg rotation - cryst. axis [0,1,0]  

 cryst.   s(23) = (     1          1          0      )
                  (     0         -1          0      )
                  (     0          0          1      )

 cart.    s(23) = (  0.5000000  0.8660254  0.0000000 )
                  (  0.8660254 -0.5000000  0.0000000 )
                  (  0.0000000  0.0000000  1.0000000 )


      isym = 24     inv. 180 deg rotation - cryst. axis [1,1,0]  

 cryst.   s(24) = (     0         -1          0      )
                  (    -1          0          0      )
                  (     0          0          1      )

 cart.    s(24) = (  0.5000000 -0.8660254  0.0000000 )
                  ( -0.8660254 -0.5000000  0.0000000 )
                  (  0.0000000  0.0000000  1.0000000 )


     point group D_6h(6/mmm)
     there are 12 classes
     the character table:

       E     2C6   2C3   C2    3C2'  3C2'' i     2S3   2S6   s_h   3s_d  3s_v 
A_1g   1.00  1.00  1.00  1.00  1.00  1.00  1.00  1.00  1.00  1.00  1.00  1.00
A_2g   1.00  1.00  1.00  1.00 -1.00 -1.00  1.00  1.00  1.00  1.00 -1.00 -1.00
B_1g   1.00 -1.00  1.00 -1.00  1.00 -1.00  1.00 -1.00  1.00 -1.00  1.00 -1.00
B_2g   1.00 -1.00  1.00 -1.00 -1.00  1.00  1.00 -1.00  1.00 -1.00 -1.00  1.00
E_1g   2.00  1.00 -1.00 -2.00  0.00  0.00  2.00  1.00 -1.00 -2.00  0.00  0.00
E_2g   2.00 -1.00 -1.00  2.00  0.00  0.00  2.00 -1.00 -1.00  2.00  0.00  0.00
A_1u   1.00  1.00  1.00  1.00  1.00  1.00 -1.00 -1.00 -1.00 -1.00 -1.00 -1.00
A_2u   1.00  1.00  1.00  1.00 -1.00 -1.00 -1.00 -1.00 -1.00 -1.00  1.00  1.00
B_1u   1.00 -1.00  1.00 -1.00  1.00 -1.00 -1.00  1.00 -1.00  1.00 -1.00  1.00
B_2u   1.00 -1.00  1.00 -1.00 -1.00  1.00 -1.00  1.00 -1.00  1.00  1.00 -1.00
E_1u   2.00  1.00 -1.00 -2.00  0.00  0.00 -2.00 -1.00  1.00  2.00  0.00  0.00
E_2u   2.00 -1.00 -1.00  2.00  0.00  0.00 -2.00  1.00  1.00 -2.00  0.00  0.00

     the symmetry operations in each class and the name of the first element:

     E        1
          identity                                               
     2C6      5    6
           60 deg rotation - cryst. axis [0,0,1]                 
     2C3      7    8
          120 deg rotation - cryst. axis [0,0,1]                 
     C2       2
          180 deg rotation - cart. axis [0,0,1]                  
     3C2'     4   12   11
          180 deg rotation - cart. axis [1,0,0]                  
     3C2''    3    9   10
          180 deg rotation - cart. axis [0,1,0]                  
     i       13
          inversion                                              
     2S3     17   18
          inv.  60 deg rotation - cryst. axis [0,0,1]            
     2S6     19   20
          inv. 120 deg rotation - cryst. axis [0,0,1]            
     s_h     14
          inv. 180 deg rotation - cart. axis [0,0,1]             
     3s_d    16   24   23
          inv. 180 deg rotation - cart. axis [1,0,0]             
     3s_v    15   21   22
          inv. 180 deg rotation - cart. axis [0,1,0]             

   Cartesian axes

     site n.     atom                  positions (alat units)
         1        B      tau(   1) = (   0.5000000   0.0000000   2.6202915  )
         2        B      tau(   2) = (  -0.2500000   0.4330127   2.6202915  )
         3        B      tau(   3) = (   0.2500000   0.4330127   2.6202915  )
         4        B      tau(   4) = (   0.5000000   0.0000000   3.2184185  )
         5        B      tau(   5) = (  -0.2500000   0.4330127   3.2184185  )
         6        B      tau(   6) = (   0.2500000   0.4330127   3.2184185  )

   Crystallographic axes

     site n.     atom                  positions (cryst. coord.)
         1        B      tau(   1) = (  0.5000000  0.0000000  0.4487792  )
         2        B      tau(   2) = (  0.0000000  0.5000000  0.4487792  )
         3        B      tau(   3) = (  0.5000000  0.5000000  0.4487792  )
         4        B      tau(   4) = (  0.5000000  0.0000000  0.5512208  )
         5        B      tau(   5) = (  0.0000000  0.5000000  0.5512208  )
         6        B      tau(   6) = (  0.5000000  0.5000000  0.5512208  )

     number of k points=    37  Methfessel-Paxton smearing, width (Ry)=  0.0200
                       cart. coord. in units 2pi/alat
        k(    1) = (   0.0000000   0.0000000   0.0000000), wk =   0.0061728
        k(    2) = (   0.0000000   0.0641500   0.0000000), wk =   0.0370370
        k(    3) = (   0.0000000   0.1283001   0.0000000), wk =   0.0370370
        k(    4) = (   0.0000000   0.1924501   0.0000000), wk =   0.0370370
        k(    5) = (   0.0000000   0.2566001   0.0000000), wk =   0.0370370
        k(    6) = (   0.0000000   0.3207501   0.0000000), wk =   0.0370370
        k(    7) = (   0.0000000   0.3849002   0.0000000), wk =   0.0370370
        k(    8) = (   0.0000000   0.4490502   0.0000000), wk =   0.0370370
        k(    9) = (   0.0000000   0.5132002   0.0000000), wk =   0.0370370
        k(   10) = (   0.0000000  -0.5773503   0.0000000), wk =   0.0185185
        k(   11) = (   0.0555556   0.0962250   0.0000000), wk =   0.0370370
        k(   12) = (   0.0555556   0.1603751   0.0000000), wk =   0.0740741
        k(   13) = (   0.0555556   0.2245251   0.0000000), wk =   0.0740741
        k(   14) = (   0.0555556   0.2886751   0.0000000), wk =   0.0740741
        k(   15) = (   0.0555556   0.3528252   0.0000000), wk =   0.0740741
        k(   16) = (   0.0555556   0.4169752   0.0000000), wk =   0.0740741
        k(   17) = (   0.0555556   0.4811252   0.0000000), wk =   0.0740741
        k(   18) = (   0.0555556   0.5452753   0.0000000), wk =   0.0740741
        k(   19) = (   0.1111111   0.1924501   0.0000000), wk =   0.0370370
        k(   20) = (   0.1111111   0.2566001   0.0000000), wk =   0.0740741
        k(   21) = (   0.1111111   0.3207501   0.0000000), wk =   0.0740741
        k(   22) = (   0.1111111   0.3849002   0.0000000), wk =   0.0740741
        k(   23) = (   0.1111111   0.4490502   0.0000000), wk =   0.0740741
        k(   24) = (   0.1111111   0.5132002   0.0000000), wk =   0.0740741
        k(   25) = (   0.1111111   0.5773503   0.0000000), wk =   0.0370370
        k(   26) = (   0.1666667   0.2886751   0.0000000), wk =   0.0370370
        k(   27) = (   0.1666667   0.3528252   0.0000000), wk =   0.0740741
        k(   28) = (   0.1666667   0.4169752   0.0000000), wk =   0.0740741
        k(   29) = (   0.1666667   0.4811252   0.0000000), wk =   0.0740741
        k(   30) = (   0.1666667   0.5452753   0.0000000), wk =   0.0740741
        k(   31) = (   0.2222222   0.3849002   0.0000000), wk =   0.0370370
        k(   32) = (   0.2222222   0.4490502   0.0000000), wk =   0.0740741
        k(   33) = (   0.2222222   0.5132002   0.0000000), wk =   0.0740741
        k(   34) = (   0.2222222   0.5773503   0.0000000), wk =   0.0370370
        k(   35) = (   0.2777778   0.4811252   0.0000000), wk =   0.0370370
        k(   36) = (   0.2777778   0.5452753   0.0000000), wk =   0.0740741
        k(   37) = (   0.3333333   0.5773503   0.0000000), wk =   0.0123457

                       cryst. coord.
        k(    1) = (   0.0000000   0.0000000   0.0000000), wk =   0.0061728
        k(    2) = (   0.0000000   0.0555556   0.0000000), wk =   0.0370370
        k(    3) = (   0.0000000   0.1111111   0.0000000), wk =   0.0370370
        k(    4) = (   0.0000000   0.1666667   0.0000000), wk =   0.0370370
        k(    5) = (   0.0000000   0.2222222   0.0000000), wk =   0.0370370
        k(    6) = (   0.0000000   0.2777778   0.0000000), wk =   0.0370370
        k(    7) = (   0.0000000   0.3333333   0.0000000), wk =   0.0370370
        k(    8) = (   0.0000000   0.3888889   0.0000000), wk =   0.0370370
        k(    9) = (   0.0000000   0.4444444   0.0000000), wk =   0.0370370
        k(   10) = (   0.0000000  -0.5000000   0.0000000), wk =   0.0185185
        k(   11) = (   0.0555556   0.0555556   0.0000000), wk =   0.0370370
        k(   12) = (   0.0555556   0.1111111   0.0000000), wk =   0.0740741
        k(   13) = (   0.0555556   0.1666667   0.0000000), wk =   0.0740741
        k(   14) = (   0.0555556   0.2222222   0.0000000), wk =   0.0740741
        k(   15) = (   0.0555556   0.2777778   0.0000000), wk =   0.0740741
        k(   16) = (   0.0555556   0.3333333   0.0000000), wk =   0.0740741
        k(   17) = (   0.0555556   0.3888889   0.0000000), wk =   0.0740741
        k(   18) = (   0.0555556   0.4444444   0.0000000), wk =   0.0740741
        k(   19) = (   0.1111111   0.1111111   0.0000000), wk =   0.0370370
        k(   20) = (   0.1111111   0.1666667   0.0000000), wk =   0.0740741
        k(   21) = (   0.1111111   0.2222222   0.0000000), wk =   0.0740741
        k(   22) = (   0.1111111   0.2777778   0.0000000), wk =   0.0740741
        k(   23) = (   0.1111111   0.3333333   0.0000000), wk =   0.0740741
        k(   24) = (   0.1111111   0.3888889   0.0000000), wk =   0.0740741
        k(   25) = (   0.1111111   0.4444444   0.0000000), wk =   0.0370370
        k(   26) = (   0.1666667   0.1666667   0.0000000), wk =   0.0370370
        k(   27) = (   0.1666667   0.2222222   0.0000000), wk =   0.0740741
        k(   28) = (   0.1666667   0.2777778   0.0000000), wk =   0.0740741
        k(   29) = (   0.1666667   0.3333333   0.0000000), wk =   0.0740741
        k(   30) = (   0.1666667   0.3888889   0.0000000), wk =   0.0740741
        k(   31) = (   0.2222222   0.2222222   0.0000000), wk =   0.0370370
        k(   32) = (   0.2222222   0.2777778   0.0000000), wk =   0.0740741
        k(   33) = (   0.2222222   0.3333333   0.0000000), wk =   0.0740741
        k(   34) = (   0.2222222   0.3888889   0.0000000), wk =   0.0370370
        k(   35) = (   0.2777778   0.2777778   0.0000000), wk =   0.0370370
        k(   36) = (   0.2777778   0.3333333   0.0000000), wk =   0.0740741
        k(   37) = (   0.3333333   0.3333333   0.0000000), wk =   0.0123457

     Dense  grid:   185551 G-vectors     FFT dimensions: (  45,  45, 243)

     Smooth grid:    65685 G-vectors     FFT dimensions: (  30,  30, 180)

     Dynamical RAM for                 wfc:       1.50 MB

     Dynamical RAM for     wfc (w. buffer):      57.00 MB

     Dynamical RAM for           str. fact:       1.42 MB

     Dynamical RAM for           local pot:       0.00 MB

     Dynamical RAM for          nlocal pot:       3.00 MB

     Dynamical RAM for                qrad:       0.46 MB

     Dynamical RAM for          rho,v,vnew:       9.90 MB

     Dynamical RAM for               rhoin:       3.30 MB

     Dynamical RAM for            rho*nmix:      22.65 MB

     Dynamical RAM for           G-vectors:       5.56 MB

     Dynamical RAM for          h,s,v(r/c):       0.11 MB

     Dynamical RAM for          <psi|beta>:       0.02 MB

     Dynamical RAM for                 psi:       3.00 MB

     Dynamical RAM for                hpsi:       3.00 MB

     Dynamical RAM for                spsi:       3.00 MB

     Dynamical RAM for      wfcinit/wfcrot:       3.01 MB

     Dynamical RAM for           addusdens:      69.37 MB

     Estimated static dynamical RAM per process >      92.89 MB

     Estimated max dynamical RAM per process >     184.92 MB

     Estimated total dynamical RAM >     369.84 MB
 ----2D----2D----2D----2D----2D----2D----2D----2D----2D----2D----2D----2D
  The code is running with the 2D cutoff
  Please refer to:
  Sohier, T., Calandra, M., & Mauri, F. (2017), 
  Density functional perturbation theory for gated two-dimensional heterostructures:
  Theoretical developments and application to flexural phonons in graphene.
  Physical Review B, 96(7), 75448. https://doi.org/10.1103/PhysRevB.96.075448
 ----2D----2D----2D----2D----2D----2D----2D----2D----2D----2D----2D----2D

     Initial potential from superposition of free atoms

     starting charge      17.9983, renormalised to      18.0000

     negative rho (up, down):  1.398E-04 0.000E+00
     Starting wfcs are   24 randomized atomic wfcs

     total cpu time spent up to now is        1.2 secs

     per-process dynamical memory:   115.6 Mb

     Self-consistent Calculation

     iteration #  1     ecut=    50.00 Ry     beta= 0.30
     Davidson diagonalization with overlap

---- Real-time Memory Report at c_bands before calling an iterative solver
           166 MiB given to the printing process from OS
           112 MiB allocation reported by mallinfo(arena+hblkhd)
           487 MiB available memory on the node where the printing process lives
------------------
     ethr =  1.00E-02,  avg # of iterations =  8.7

     negative rho (up, down):  3.708E-07 0.000E+00

     total cpu time spent up to now is        4.5 secs

     total energy              =     -37.58616594 Ry
     estimated scf accuracy    <       0.42943975 Ry

     iteration #  2     ecut=    50.00 Ry     beta= 0.30
     Davidson diagonalization with overlap

---- Real-time Memory Report at c_bands before calling an iterative solver
           229 MiB given to the printing process from OS
           130 MiB allocation reported by mallinfo(arena+hblkhd)
           463 MiB available memory on the node where the printing process lives
------------------
     ethr =  2.39E-03,  avg # of iterations =  1.0

     negative rho (up, down):  8.080E-05 0.000E+00

     total cpu time spent up to now is        6.1 secs

     total energy              =     -37.45667416 Ry
     estimated scf accuracy    <       0.30463033 Ry

     iteration #  3     ecut=    50.00 Ry     beta= 0.30
     Davidson diagonalization with overlap

---- Real-time Memory Report at c_bands before calling an iterative solver
           236 MiB given to the printing process from OS
           131 MiB allocation reported by mallinfo(arena+hblkhd)
           463 MiB available memory on the node where the printing process lives
------------------
     ethr =  1.69E-03,  avg # of iterations =  2.0

     negative rho (up, down):  1.326E-06 0.000E+00

     total cpu time spent up to now is        7.9 secs

     total energy              =     -37.48964158 Ry
     estimated scf accuracy    <       0.04597829 Ry

     iteration #  4     ecut=    50.00 Ry     beta= 0.30
     Davidson diagonalization with overlap

---- Real-time Memory Report at c_bands before calling an iterative solver
           237 MiB given to the printing process from OS
           132 MiB allocation reported by mallinfo(arena+hblkhd)
           430 MiB available memory on the node where the printing process lives
------------------
     ethr =  2.55E-04,  avg # of iterations =  4.8

     negative rho (up, down):  1.045E-06 0.000E+00

     total cpu time spent up to now is       10.3 secs

     total energy              =     -37.47739777 Ry
     estimated scf accuracy    <       0.03799659 Ry

     iteration #  5     ecut=    50.00 Ry     beta= 0.30
     Davidson diagonalization with overlap

---- Real-time Memory Report at c_bands before calling an iterative solver
           238 MiB given to the printing process from OS
           133 MiB allocation reported by mallinfo(arena+hblkhd)
           451 MiB available memory on the node where the printing process lives
------------------
     ethr =  2.11E-04,  avg # of iterations =  4.1

     negative rho (up, down):  1.479E-06 0.000E+00

     total cpu time spent up to now is       12.8 secs

     total energy              =     -37.47932169 Ry
     estimated scf accuracy    <       0.01189436 Ry

     iteration #  6     ecut=    50.00 Ry     beta= 0.30
     Davidson diagonalization with overlap

---- Real-time Memory Report at c_bands before calling an iterative solver
           239 MiB given to the printing process from OS
           134 MiB allocation reported by mallinfo(arena+hblkhd)
          1105 MiB available memory on the node where the printing process lives
------------------
     ethr =  6.61E-05,  avg # of iterations =  5.1

     negative rho (up, down):  2.771E-02 0.000E+00

     total cpu time spent up to now is       14.6 secs

     total energy              =     -37.47640997 Ry
     estimated scf accuracy    <       0.00906830 Ry

     iteration #  7     ecut=    50.00 Ry     beta= 0.30
     Davidson diagonalization with overlap

---- Real-time Memory Report at c_bands before calling an iterative solver
           240 MiB given to the printing process from OS
           135 MiB allocation reported by mallinfo(arena+hblkhd)
           991 MiB available memory on the node where the printing process lives
------------------
     ethr =  5.04E-05,  avg # of iterations =  6.4

     negative rho (up, down):  2.356E-02 0.000E+00

     total cpu time spent up to now is       16.6 secs

     total energy              =     -37.47197138 Ry
     estimated scf accuracy    <       0.00568900 Ry

     iteration #  8     ecut=    50.00 Ry     beta= 0.30
     Davidson diagonalization with overlap

---- Real-time Memory Report at c_bands before calling an iterative solver
           241 MiB given to the printing process from OS
           136 MiB allocation reported by mallinfo(arena+hblkhd)
          1025 MiB available memory on the node where the printing process lives
------------------
     ethr =  3.16E-05,  avg # of iterations =  7.8

     negative rho (up, down):  3.427E-02 0.000E+00

     total cpu time spent up to now is       18.9 secs

     total energy              =     -37.46994566 Ry
     estimated scf accuracy    <       0.00269281 Ry

     iteration #  9     ecut=    50.00 Ry     beta= 0.30
     Davidson diagonalization with overlap

---- Real-time Memory Report at c_bands before calling an iterative solver
           242 MiB given to the printing process from OS
           137 MiB allocation reported by mallinfo(arena+hblkhd)
          1002 MiB available memory on the node where the printing process lives
------------------
     ethr =  1.50E-05,  avg # of iterations =  6.7

     negative rho (up, down):  1.462E-02 0.000E+00

     total cpu time spent up to now is       21.0 secs

     total energy              =     -37.46958475 Ry
     estimated scf accuracy    <       0.00129216 Ry

     iteration # 10     ecut=    50.00 Ry     beta= 0.30
     Davidson diagonalization with overlap

---- Real-time Memory Report at c_bands before calling an iterative solver
           242 MiB given to the printing process from OS
           138 MiB allocation reported by mallinfo(arena+hblkhd)
           950 MiB available memory on the node where the printing process lives
------------------
     ethr =  7.18E-06,  avg # of iterations =  7.9

     negative rho (up, down):  8.129E-03 0.000E+00

     total cpu time spent up to now is       23.4 secs

     total energy              =     -37.46980093 Ry
     estimated scf accuracy    <       0.00017004 Ry

     iteration # 11     ecut=    50.00 Ry     beta= 0.30
     Davidson diagonalization with overlap

---- Real-time Memory Report at c_bands before calling an iterative solver
           243 MiB given to the printing process from OS
           138 MiB allocation reported by mallinfo(arena+hblkhd)
           971 MiB available memory on the node where the printing process lives
------------------
     ethr =  9.45E-07,  avg # of iterations =  4.9

     negative rho (up, down):  1.220E-03 0.000E+00

     total cpu time spent up to now is       25.4 secs

     total energy              =     -37.46980400 Ry
     estimated scf accuracy    <       0.00017158 Ry

     iteration # 12     ecut=    50.00 Ry     beta= 0.30
     Davidson diagonalization with overlap

---- Real-time Memory Report at c_bands before calling an iterative solver
           243 MiB given to the printing process from OS
           138 MiB allocation reported by mallinfo(arena+hblkhd)
           963 MiB available memory on the node where the printing process lives
------------------
     c_bands:  1 eigenvalues not converged
     ethr =  9.45E-07,  avg # of iterations =  7.6

     negative rho (up, down):  4.764E-04 0.000E+00

     total cpu time spent up to now is       27.8 secs

     total energy              =     -37.46981193 Ry
     estimated scf accuracy    <       0.00002294 Ry

     iteration # 13     ecut=    50.00 Ry     beta= 0.30
     Davidson diagonalization with overlap

---- Real-time Memory Report at c_bands before calling an iterative solver
           243 MiB given to the printing process from OS
           138 MiB allocation reported by mallinfo(arena+hblkhd)
           979 MiB available memory on the node where the printing process lives
------------------
     ethr =  1.27E-07,  avg # of iterations =  4.0

     negative rho (up, down):  5.661E-04 0.000E+00

     total cpu time spent up to now is       29.7 secs

     total energy              =     -37.46981449 Ry
     estimated scf accuracy    <       0.00000470 Ry

     iteration # 14     ecut=    50.00 Ry     beta= 0.30
     Davidson diagonalization with overlap

---- Real-time Memory Report at c_bands before calling an iterative solver
           243 MiB given to the printing process from OS
           138 MiB allocation reported by mallinfo(arena+hblkhd)
          1010 MiB available memory on the node where the printing process lives
------------------
     ethr =  2.61E-08,  avg # of iterations =  1.6

     negative rho (up, down):  4.666E-04 0.000E+00

     total cpu time spent up to now is       31.2 secs

     total energy              =     -37.46981514 Ry
     estimated scf accuracy    <       0.00000014 Ry

     iteration # 15     ecut=    50.00 Ry     beta= 0.30
     Davidson diagonalization with overlap

---- Real-time Memory Report at c_bands before calling an iterative solver
           243 MiB given to the printing process from OS
           138 MiB allocation reported by mallinfo(arena+hblkhd)
          1009 MiB available memory on the node where the printing process lives
------------------
     ethr =  7.91E-10,  avg # of iterations =  2.1

     negative rho (up, down):  4.714E-04 0.000E+00

     total cpu time spent up to now is       32.9 secs

     total energy              =     -37.46981519 Ry
     estimated scf accuracy    <       0.00000007 Ry

     iteration # 16     ecut=    50.00 Ry     beta= 0.30
     Davidson diagonalization with overlap

---- Real-time Memory Report at c_bands before calling an iterative solver
           243 MiB given to the printing process from OS
           138 MiB allocation reported by mallinfo(arena+hblkhd)
          1059 MiB available memory on the node where the printing process lives
------------------
     ethr =  4.16E-10,  avg # of iterations =  2.0

     negative rho (up, down):  4.661E-04 0.000E+00

     total cpu time spent up to now is       34.5 secs

     total energy              =     -37.46981522 Ry
     estimated scf accuracy    <          4.8E-09 Ry

     iteration # 17     ecut=    50.00 Ry     beta= 0.30
     Davidson diagonalization with overlap

---- Real-time Memory Report at c_bands before calling an iterative solver
           243 MiB given to the printing process from OS
           138 MiB allocation reported by mallinfo(arena+hblkhd)
          1057 MiB available memory on the node where the printing process lives
------------------
     ethr =  2.65E-11,  avg # of iterations =  1.9

     negative rho (up, down):  4.553E-04 0.000E+00

     total cpu time spent up to now is       36.1 secs

     total energy              =     -37.46981524 Ry
     estimated scf accuracy    <          1.4E-09 Ry

     iteration # 18     ecut=    50.00 Ry     beta= 0.30
     Davidson diagonalization with overlap

---- Real-time Memory Report at c_bands before calling an iterative solver
           243 MiB given to the printing process from OS
           138 MiB allocation reported by mallinfo(arena+hblkhd)
          1028 MiB available memory on the node where the printing process lives
------------------
     ethr =  7.89E-12,  avg # of iterations =  2.0

     negative rho (up, down):  4.600E-04 0.000E+00

     total cpu time spent up to now is       37.6 secs

     End of self-consistent calculation

          k = 0.0000 0.0000 0.0000 (  8275 PWs)   bands (ev):

   -19.1458 -15.3738 -12.0355 -10.3318 -10.1122  -6.4989  -6.4989  -4.3985
    -4.3985  -3.7803  -3.2763  -3.2763  -0.3531   0.1354   1.4020   1.4020
     1.7567   2.3106   2.3106   2.3175   3.9959   5.1449   5.7780   7.3617

     occupation numbers 
     1.0000   1.0000   1.0000   1.0000   1.0000   1.0000   1.0000   1.0330
     1.0330  -0.0349  -0.0001  -0.0001  -0.0000  -0.0000  -0.0000  -0.0000
    -0.0000  -0.0000  -0.0000  -0.0000  -0.0000  -0.0000  -0.0000  -0.0000

          k = 0.0000 0.0642 0.0000 (  8239 PWs)   bands (ev):

   -19.1086 -15.3403 -12.1000 -10.2879 -10.1435  -6.7133  -6.5696  -4.5435
    -4.4069  -3.7386  -3.1529  -3.1006  -0.3023   0.1867   1.4503   1.4997
     1.8069   2.0856   2.2717   2.3685   4.1893   5.1934   5.8342   7.5067

     occupation numbers 
     1.0000   1.0000   1.0000   1.0000   1.0000   1.0000   1.0000   1.0212
     1.0342  -0.0343  -0.0000  -0.0000  -0.0000  -0.0000  -0.0000  -0.0000
    -0.0000  -0.0000  -0.0000  -0.0000  -0.0000  -0.0000  -0.0000  -0.0000

          k = 0.0000 0.1283 0.0000 (  8233 PWs)   bands (ev):

   -18.9971 -15.2404 -12.2926 -10.2388 -10.1570  -7.2154  -6.7513  -4.9252
    -4.4308  -3.6145  -2.8160  -2.7366  -0.1499   0.3402   1.5755   1.5932
     1.7391   1.9580   2.1662   2.5208   4.7508   5.3422   5.9942   7.7848

     occupation numbers 
     1.0000   1.0000   1.0000   1.0000   1.0000   1.0000   1.0000   1.0001
     1.0355  -0.0155  -0.0000  -0.0000  -0.0000  -0.0000  -0.0000  -0.0000
    -0.0000  -0.0000  -0.0000  -0.0000  -0.0000  -0.0000  -0.0000  -0.0000

          k = 0.0000 0.1925 0.0000 (  8211 PWs)   bands (ev):

   -18.8128 -15.0754 -12.6093 -10.4016  -9.9410  -7.7969  -6.9853  -5.4323
    -4.4667  -3.4098  -2.4865  -2.3334   0.1042   0.5954   1.1236   1.8255
     2.0024   2.0233   2.2084   2.7733   5.4907   5.7280   6.2321   7.3166

     occupation numbers 
     1.0000   1.0000   1.0000   1.0000   1.0000   1.0000   1.0000   1.0000
     1.0332  -0.0010  -0.0000  -0.0000  -0.0000  -0.0000  -0.0000  -0.0000
    -0.0000  -0.0000  -0.0000  -0.0000  -0.0000  -0.0000  -0.0000  -0.0000

          k = 0.0000 0.2566 0.0000 (  8189 PWs)   bands (ev):

   -18.5580 -14.8478 -13.0391 -10.6364  -9.6446  -8.3372  -7.2250  -5.9619
    -4.5094  -3.1276  -2.6222  -1.7707   0.4602   0.9501   1.0559   1.8820
     2.1387   2.1585   2.5575   3.1267   5.8552   6.4131   6.8083   6.9363

     occupation numbers 
     1.0000   1.0000   1.0000   1.0000   1.0000   1.0000   1.0000   1.0000
     1.0270  -0.0000  -0.0000  -0.0000  -0.0000  -0.0000  -0.0000  -0.0000
    -0.0000  -0.0000  -0.0000  -0.0000  -0.0000  -0.0000  -0.0000  -0.0000

          k = 0.0000 0.3208 0.0000 (  8173 PWs)   bands (ev):

   -18.2368 -14.5619 -13.5595 -10.9444  -9.2853  -8.7715  -7.4425  -6.4414
    -4.5536  -3.1596  -2.7733  -1.1915   0.9136   1.3931   1.4319   1.7871
     2.0992   2.5203   3.0036   3.5824   6.2255   6.2875   7.1926   7.4065

     occupation numbers 
     1.0000   1.0000   1.0000   1.0000   1.0000   1.0000   1.0000   1.0000
     1.0196  -0.0000  -0.0000  -0.0000  -0.0000  -0.0000  -0.0000  -0.0000
    -0.0000  -0.0000  -0.0000  -0.0000  -0.0000  -0.0000  -0.0000  -0.0000

          k = 0.0000 0.3849 0.0000 (  8168 PWs)   bands (ev):

   -17.8574 -14.2254 -14.1358 -11.3176  -9.1840  -8.7742  -7.6220  -6.8285
    -4.5939  -3.8882  -2.3581  -0.6718   1.4568   1.6480   1.7875   2.0608
     2.0705   2.9522   3.5428   4.1393   6.2807   6.4522   6.9090   7.0407

     occupation numbers 
     1.0000   1.0000   1.0000   1.0000   1.0000   1.0000   1.0000   1.0000
     1.0135   0.0185  -0.0000  -0.0000  -0.0000  -0.0000  -0.0000  -0.0000
    -0.0000  -0.0000  -0.0000  -0.0000  -0.0000  -0.0000  -0.0000  -0.0000

          k = 0.0000 0.4491 0.0000 (  8174 PWs)   bands (ev):

   -17.4374 -14.7209 -13.8537 -11.7317  -9.3974  -8.3171  -7.7548  -7.1048
    -4.6344  -4.6260  -1.9065  -0.2935   1.2097   1.9124   2.0787   2.6758
     2.7558   3.4025   4.1625   4.7948   5.8534   6.1428   6.4092   6.7404

     occupation numbers 
     1.0000   1.0000   1.0000   1.0000   1.0000   1.0000   1.0000   1.0000
     1.0087   1.0096  -0.0000  -0.0000  -0.0000  -0.0000  -0.0000  -0.0000
    -0.0000  -0.0000  -0.0000  -0.0000  -0.0000  -0.0000  -0.0000  -0.0000

          k = 0.0000 0.5132 0.0000 (  8198 PWs)   bands (ev):

   -17.0291 -15.2384 -13.4887 -12.1305  -9.5320  -7.8744  -7.8361  -7.2680
    -5.2580  -4.6466  -1.4854  -0.0906   0.7296   2.1008   2.7312   3.3395
     3.4290   3.8008   4.6967   5.1701   5.2265   5.5460   5.9800   6.5614

     occupation numbers 
     1.0000   1.0000   1.0000   1.0000   1.0000   1.0000   1.0000   1.0000
     1.0000   1.0075  -0.0000  -0.0000  -0.0000  -0.0000  -0.0000  -0.0000
    -0.0000  -0.0000  -0.0000  -0.0000  -0.0000  -0.0000  -0.0000  -0.0000

          k = 0.0000-0.5774 0.0000 (  8204 PWs)   bands (ev):

   -16.8177 -15.4880 -13.2927 -12.3395  -9.5766  -7.8635  -7.6629  -7.3218
    -5.5318  -4.6537  -1.2830  -0.0312   0.5003   2.1943   3.1249   3.5905
     3.9821   4.2362   4.3337   4.4264   5.4595   5.7881   6.1735   6.4074

     occupation numbers 
     1.0000   1.0000   1.0000   1.0000   1.0000   1.0000   1.0000   1.0000
     1.0000   1.0069  -0.0000  -0.0000  -0.0000  -0.0000  -0.0000  -0.0000
    -0.0000  -0.0000  -0.0000  -0.0000  -0.0000  -0.0000  -0.0000  -0.0000

          k = 0.0556 0.0962 0.0000 (  8221 PWs)   bands (ev):

   -19.0342 -15.2736 -12.2282 -10.2067 -10.2005  -7.1007  -6.6547  -4.8169
    -4.4108  -3.6558  -2.9765  -2.7900  -0.2007   0.2891   1.5235   1.6880
     1.7383   1.9065   2.1829   2.4701   4.5678   5.2920   5.9425   7.7678

     occupation numbers 
     1.0000   1.0000   1.0000   1.0000   1.0000   1.0000   1.0000   1.0006
     1.0346  -0.0220  -0.0000  -0.0000  -0.0000  -0.0000  -0.0000  -0.0000
    -0.0000  -0.0000  -0.0000  -0.0000  -0.0000  -0.0000  -0.0000  -0.0000

          k = 0.0556 0.1604 0.0000 (  8214 PWs)   bands (ev):

   -18.8863 -15.1412 -12.4804 -10.3347 -10.0272  -7.6893  -6.7776  -5.2818
    -4.4098  -3.4915  -2.6859  -2.4130   0.0023   0.4935   1.3089   1.6553
     1.9811   2.0118   2.1170   2.6724   5.2604   5.5196   6.1446   7.6299

     occupation numbers 
     1.0000   1.0000   1.0000   1.0000   1.0000   1.0000   1.0000   1.0000
     1.0345  -0.0036  -0.0000  -0.0000  -0.0000  -0.0000  -0.0000  -0.0000
    -0.0000  -0.0000  -0.0000  -0.0000  -0.0000  -0.0000  -0.0000  -0.0000

          k = 0.0556 0.2245 0.0000 (  8198 PWs)   bands (ev):

   -18.6667 -14.9448 -12.8481 -10.5307  -9.7716  -8.2951  -6.9264  -5.8221
    -4.4090  -3.2481  -2.5008  -2.1101   0.3069   0.7987   1.1278   1.8415
     1.8469   2.2472   2.4113   2.9745   5.7189   6.3521   6.3940   7.0962

     occupation numbers 
     1.0000   1.0000   1.0000   1.0000   1.0000   1.0000   1.0000   1.0000
     1.0344  -0.0000  -0.0000  -0.0000  -0.0000  -0.0000  -0.0000  -0.0000
    -0.0000  -0.0000  -0.0000  -0.0000  -0.0000  -0.0000  -0.0000  -0.0000

          k = 0.0556 0.2887 0.0000 (  8183 PWs)   bands (ev):

   -18.3784 -14.6878 -13.3158 -10.7975  -9.4470  -8.8204  -7.0801  -6.3480
    -4.4104  -2.9298  -2.8493  -1.6422   0.7122   1.2002   1.2961   1.7943
     2.0161   2.4153   2.8091   3.3775   6.0780   6.4189   7.0354   7.5260

     occupation numbers 
     1.0000   1.0000   1.0000   1.0000   1.0000   1.0000   1.0000   1.0000
     1.0345  -0.0000  -0.0000  -0.0000  -0.0000  -0.0000  -0.0000  -0.0000
    -0.0000  -0.0000  -0.0000  -0.0000  -0.0000  -0.0000  -0.0000  -0.0000

          k = 0.0556 0.3528 0.0000 (  8176 PWs)   bands (ev):

   -18.0272 -14.3761 -13.8574 -11.1330  -9.3288  -8.9602  -7.2211  -6.8005
    -4.4143  -3.5135  -2.5444  -1.1217   1.2146   1.3766   1.6440   1.9833
     2.2042   2.6426   3.3031   3.8810   6.2881   6.4433   7.1049   7.4873

     occupation numbers 
     1.0000   1.0000   1.0000   1.0000   1.0000   1.0000   1.0000   1.0000
     1.0349  -0.0049  -0.0000  -0.0000  -0.0000  -0.0000  -0.0000  -0.0000
    -0.0000  -0.0000  -0.0000  -0.0000  -0.0000  -0.0000  -0.0000  -0.0000

          k = 0.0556 0.4170 0.0000 (  8182 PWs)   bands (ev):

   -17.6248 -14.4350 -14.0201 -11.5238  -9.6127  -8.5267  -7.3365  -7.1475
    -4.4195  -4.2667  -2.1079  -0.6580   1.3924   1.4601   1.8125   2.3759
     2.8956   2.9914   3.8871   4.4809   6.1281   6.3090   6.8510   6.9911

     occupation numbers 
     1.0000   1.0000   1.0000   1.0000   1.0000   1.0000   1.0000   1.0000
     1.0352   0.9299  -0.0000  -0.0000  -0.0000  -0.0000  -0.0000  -0.0000
    -0.0000  -0.0000  -0.0000  -0.0000  -0.0000  -0.0000  -0.0000  -0.0000

          k = 0.0556 0.4811 0.0000 (  8187 PWs)   bands (ev):

   -17.2000 -14.9932 -13.6438 -11.9349  -9.8132  -8.0522  -7.4178  -7.3777
    -4.9695  -4.4244  -1.6599  -0.3410   0.9697   1.4912   2.4922   3.0704
     3.3577   3.5502   4.5260   5.1591   5.5135   5.6491   6.0918   6.8054

     occupation numbers 
     1.0000   1.0000   1.0000   1.0000   1.0000   1.0000   1.0000   1.0000
     1.0000   1.0354  -0.0000  -0.0000  -0.0000  -0.0000  -0.0000  -0.0000
    -0.0000  -0.0000  -0.0000  -0.0000  -0.0000  -0.0000  -0.0000  -0.0000

          k = 0.0556 0.5453 0.0000 (  8199 PWs)   bands (ev):

   -16.8520 -15.4132 -13.3287 -12.2719  -9.9125  -7.6871  -7.4913  -7.4597
    -5.4555  -4.4273  -1.3161  -0.1973   0.5798   1.6049   3.2116   3.6143
     3.7799   3.8760   4.7217   4.7621   5.3678   5.6049   6.0735   6.3775

     occupation numbers 
     1.0000   1.0000   1.0000   1.0000   1.0000   1.0000   1.0000   1.0000
     1.0000   1.0354  -0.0000  -0.0000  -0.0000  -0.0000  -0.0000  -0.0000
    -0.0000  -0.0000  -0.0000  -0.0000  -0.0000  -0.0000  -0.0000  -0.0000

          k = 0.1111 0.1925 0.0000 (  8207 PWs)   bands (ev):

   -18.7030 -14.9773 -12.7788 -10.4935  -9.8147  -8.3405  -6.7245  -5.8044
    -4.3299  -3.2887  -2.5113  -2.2483   0.2553   0.7481   1.2600   1.7103
     1.7501   2.2816   2.3642   2.9235   5.6709   6.1982   6.3745   7.3016

     occupation numbers 
     1.0000   1.0000   1.0000   1.0000   1.0000   1.0000   1.0000   1.0000
     1.0028  -0.0001  -0.0000  -0.0000  -0.0000  -0.0000  -0.0000  -0.0000
    -0.0000  -0.0000  -0.0000  -0.0000  -0.0000  -0.0000  -0.0000  -0.0000

          k = 0.1111 0.2566 0.0000 (  8188 PWs)   bands (ev):

   -18.4497 -14.7513 -13.1733 -10.7154  -9.5362  -8.9682  -6.6745  -6.3723
    -4.2237  -3.0095  -2.5709  -2.1736   0.6070   1.1015   1.3938   1.6832
     1.7920   2.4638   2.7140   3.2727   6.0016   6.5595   7.0551   7.2698

     occupation numbers 
     1.0000   1.0000   1.0000   1.0000   1.0000   1.0000   1.0000   1.0000
     0.8501  -0.0000  -0.0000  -0.0000  -0.0000  -0.0000  -0.0000  -0.0000
    -0.0000  -0.0000  -0.0000  -0.0000  -0.0000  -0.0000  -0.0000  -0.0000

          k = 0.1111 0.3208 0.0000 (  8192 PWs)   bands (ev):

   -18.1305 -14.4679 -13.6480 -11.0006  -9.6002  -9.0895  -6.9023  -6.6513
    -4.1144  -3.1592  -2.6597  -1.7960   1.0147   1.1750   1.5349   1.8752
     2.3546   2.4657   3.1614   3.7190   6.3383   6.3816   7.1705   7.4073

     occupation numbers 
     1.0000   1.0000   1.0000   1.0000   1.0000   1.0000   1.0000   1.0000
     0.5532  -0.0000  -0.0000  -0.0000  -0.0000  -0.0000  -0.0000  -0.0000
    -0.0000  -0.0000  -0.0000  -0.0000  -0.0000  -0.0000  -0.0000  -0.0000

          k = 0.1111 0.3849 0.0000 (  8199 PWs)   bands (ev):

   -17.7535 -14.1793 -14.1346 -11.3450 -10.0155  -8.6717  -7.3423  -6.6533
    -4.0180  -3.8893  -2.2505  -1.3561   0.8883   1.6303   1.6426   2.1704
     2.4837   3.1828   3.7044   4.2551   5.9588   6.6650   7.2128   7.3162

     occupation numbers 
     1.0000   1.0000   1.0000   1.0000   1.0000   1.0000   1.0000   1.0000
     0.2647   0.0197  -0.0000  -0.0000  -0.0000  -0.0000  -0.0000  -0.0000
    -0.0000  -0.0000  -0.0000  -0.0000  -0.0000  -0.0000  -0.0000  -0.0000

          k = 0.1111 0.4491 0.0000 (  8200 PWs)   bands (ev):

   -17.3359 -14.7293 -13.7668 -11.7313 -10.3191  -8.1944  -7.6638  -6.6689
    -4.6228  -3.9445  -1.8066  -0.9439   0.7542   1.2388   2.2737   2.6588
     2.8097   3.9847   4.3332   4.8355   5.6090   6.0717   6.5771   7.0120

     occupation numbers 
     1.0000   1.0000   1.0000   1.0000   1.0000   1.0000   1.0000   1.0000
     1.0099   0.0982  -0.0000  -0.0000  -0.0000  -0.0000  -0.0000  -0.0000
    -0.0000  -0.0000  -0.0000  -0.0000  -0.0000  -0.0000  -0.0000  -0.0000

          k = 0.1111 0.5132 0.0000 (  8173 PWs)   bands (ev):

   -16.9279 -15.2269 -13.4054 -12.1103 -10.4984  -7.8567  -7.7441  -6.6871
    -5.2372  -3.8992  -1.3944  -0.6586   0.7087   0.7850   2.8611   3.0047
     3.5517   4.3689   4.9290   4.9855   5.5087   5.5610   5.9318   6.6615

     occupation numbers 
     1.0000   1.0000   1.0000   1.0000   1.0000   1.0000   1.0000   1.0000
     1.0000   0.0308  -0.0000  -0.0000  -0.0000  -0.0000  -0.0000  -0.0000
    -0.0000  -0.0000  -0.0000  -0.0000  -0.0000  -0.0000  -0.0000  -0.0000

          k = 0.1111 0.5774 0.0000 (  8196 PWs)   bands (ev):

   -16.7138 -15.4726 -13.2099 -12.3131 -10.5575  -7.9206  -7.5257  -6.6974
    -5.5091  -3.8839  -1.1974  -0.5609   0.5661   0.7080   2.9514   3.7782
     3.7935   4.3207   4.3961   5.2387   5.3059   5.6008   6.5021   6.5627

     occupation numbers 
     1.0000   1.0000   1.0000   1.0000   1.0000   1.0000   1.0000   1.0000
     1.0000   0.0142  -0.0000  -0.0000  -0.0000  -0.0000  -0.0000  -0.0000
    -0.0000  -0.0000  -0.0000  -0.0000  -0.0000  -0.0000  -0.0000  -0.0000

          k = 0.1667 0.2887 0.0000 (  8173 PWs)   bands (ev):

   -18.1651 -14.4987 -13.5679 -10.9518  -9.7149  -9.1325  -6.9555  -6.3956
    -3.9758  -2.9287  -2.6992  -2.1999   0.9311   1.1299   1.4897   1.7627
     2.4053   2.4624   3.1137   3.6630   6.3534   6.3539   7.1953   7.3822

     occupation numbers 
     1.0000   1.0000   1.0000   1.0000   1.0000   1.0000   1.0000   1.0000
     0.1608  -0.0000  -0.0000  -0.0000  -0.0000  -0.0000  -0.0000  -0.0000
    -0.0000  -0.0000  -0.0000  -0.0000  -0.0000  -0.0000  -0.0000  -0.0000

          k = 0.1667 0.3528 0.0000 (  8190 PWs)   bands (ev):

   -17.8189 -14.1928 -14.0203 -11.2384 -10.2747  -8.7455  -7.4881  -6.1638
    -3.7156  -3.5551  -2.3261  -2.0089   0.6299   1.5414   1.6518   2.0455
     2.2606   3.3432   3.6091   4.1332   5.8395   6.7123   7.5850   7.6947

     occupation numbers 
     1.0000   1.0000   1.0000   1.0000   1.0000   1.0000   1.0000   1.0000
    -0.0317  -0.0082  -0.0000  -0.0000  -0.0000  -0.0000  -0.0000  -0.0000
    -0.0000  -0.0000  -0.0000  -0.0000  -0.0000  -0.0000  -0.0000  -0.0000

          k = 0.1667 0.4170 0.0000 (  8184 PWs)   bands (ev):

   -17.4219 -14.5139 -13.8445 -11.5715 -10.7149  -8.2851  -7.9176  -6.0132
    -4.2448  -3.4825  -1.9070  -1.6981   0.2872   1.4480   2.0914   2.1381
     2.6352   4.1751   4.3151   4.6027   5.4470   6.5914   7.2026   7.2964

     occupation numbers 
     1.0000   1.0000   1.0000   1.0000   1.0000   1.0000   1.0000   1.0000
     0.8923  -0.0032  -0.0000  -0.0000  -0.0000  -0.0000  -0.0000  -0.0000
    -0.0000  -0.0000  -0.0000  -0.0000  -0.0000  -0.0000  -0.0000  -0.0000

          k = 0.1667 0.4811 0.0000 (  8194 PWs)   bands (ev):

   -17.0009 -15.0115 -13.4766 -11.9319 -11.0082  -8.2135  -7.8029  -5.9600
    -4.8706  -3.3084  -1.4810  -1.3477   0.0010   1.0377   2.1046   2.8307
     3.3129   4.6669   4.8244   4.9337   5.6485   6.0504   6.2626   6.7605

     occupation numbers 
     1.0000   1.0000   1.0000   1.0000   1.0000   1.0000   1.0000   1.0000
     1.0002  -0.0002  -0.0000  -0.0000  -0.0000  -0.0000  -0.0000  -0.0000
    -0.0000  -0.0000  -0.0000  -0.0000  -0.0000  -0.0000  -0.0000  -0.0000

          k = 0.1667 0.5453 0.0000 (  8194 PWs)   bands (ev):

   -16.6480 -15.4073 -13.1651 -12.2416 -11.1532  -8.3630  -7.4195  -6.0149
    -5.2564  -3.2157  -1.1585  -1.0776  -0.2003   0.6891   2.1584   3.6040
     3.9707   4.4209   4.5584   5.2980   5.4844   6.0624   6.4163   6.6804

     occupation numbers 
     1.0000   1.0000   1.0000   1.0000   1.0000   1.0000   1.0000   1.0000
     1.0000  -0.0000  -0.0000  -0.0000  -0.0000  -0.0000  -0.0000  -0.0000
    -0.0000  -0.0000  -0.0000  -0.0000  -0.0000  -0.0000  -0.0000  -0.0000

          k = 0.2222 0.3849 0.0000 (  8187 PWs)   bands (ev):

   -17.4513 -14.4279 -13.8709 -11.5096 -10.8644  -8.3161  -8.0164  -5.7480
    -4.0132  -3.2856  -2.1063  -1.9449   0.1291   1.4992   1.8999   2.0927
     2.5721   4.1441   4.4067   4.5132   5.3814   6.7561   7.5127   8.0548

     occupation numbers 
     1.0000   1.0000   1.0000   1.0000   1.0000   1.0000   1.0000   1.0000
     0.2520  -0.0001  -0.0000  -0.0000  -0.0000  -0.0000  -0.0000  -0.0000
    -0.0000  -0.0000  -0.0000  -0.0000  -0.0000  -0.0000  -0.0000  -0.0000

          k = 0.2222 0.4491 0.0000 (  8187 PWs)   bands (ev):

   -17.0431 -14.8634 -13.5170 -11.8137 -11.3065  -8.4299  -7.8384  -5.5680
    -4.4051  -2.8889  -2.0147  -1.5452  -0.3586   1.2400   1.5926   2.7404
     3.1754   4.4380   4.7499   5.3228   5.5929   6.2710   7.0111   7.0562

     occupation numbers 
     1.0000   1.0000   1.0000   1.0000   1.0000   1.0000   1.0000   1.0000
     1.0339  -0.0000  -0.0000  -0.0000  -0.0000  -0.0000  -0.0000  -0.0000
    -0.0000  -0.0000  -0.0000  -0.0000  -0.0000  -0.0000  -0.0000  -0.0000

          k = 0.2222 0.5132 0.0000 (  8200 PWs)   bands (ev):

   -16.6354 -15.2893 -13.1664 -12.1293 -11.5764  -8.6910  -7.3696  -5.7520
    -4.5523  -2.5995  -1.7464  -1.1902  -0.8222   0.8754   1.4744   3.4746
     3.6567   4.3902   5.0639   5.4293   5.9323   6.3160   6.3403   6.6483

     occupation numbers 
     1.0000   1.0000   1.0000   1.0000   1.0000   1.0000   1.0000   1.0000
     1.0198  -0.0000  -0.0000  -0.0000  -0.0000  -0.0000  -0.0000  -0.0000
    -0.0000  -0.0000  -0.0000  -0.0000  -0.0000  -0.0000  -0.0000  -0.0000

          k = 0.2222 0.5774 0.0000 (  8180 PWs)   bands (ev):

   -16.4056 -15.5258 -12.9667 -12.3165 -11.6666  -8.7799  -7.1190  -5.9511
    -4.5643  -2.4917  -1.4755  -1.1466  -1.0279   0.6956   1.4446   3.7177
     4.2162   4.3441   4.8640   5.2145   5.7544   6.3346   6.6477   7.0279

     occupation numbers 
     1.0000   1.0000   1.0000   1.0000   1.0000   1.0000   1.0000   1.0000
     1.0178  -0.0000  -0.0000  -0.0000  -0.0000  -0.0000  -0.0000  -0.0000
    -0.0000  -0.0000  -0.0000  -0.0000  -0.0000  -0.0000  -0.0000  -0.0000

          k = 0.2778 0.4811 0.0000 (  8191 PWs)   bands (ev):

   -16.6365 -15.2313 -13.1716 -12.0767 -11.7325  -8.8135  -7.3565  -5.6890
    -4.0839  -2.3129  -2.1956  -1.2310  -1.0156   1.0174   1.1362   3.4297
     3.5237   4.3201   5.2718   5.8085   5.8698   6.2015   6.7262   6.9172

     occupation numbers 
     1.0000   1.0000   1.0000   1.0000   1.0000   1.0000   1.0000   1.0000
     0.4586  -0.0000  -0.0000  -0.0000  -0.0000  -0.0000  -0.0000  -0.0000
    -0.0000  -0.0000  -0.0000  -0.0000  -0.0000  -0.0000  -0.0000  -0.0000

          k = 0.2778 0.5453 0.0000 (  8198 PWs)   bands (ev):

   -16.2614 -15.5808 -12.8590 -12.3384 -11.9549  -9.0193  -6.9150  -6.0522
    -3.7140  -2.1126  -1.8931  -1.6232  -1.0689   0.7627   0.9377   3.4210
     4.1837   4.9157   4.9818   5.6234   5.8158   6.1671   6.6936   6.7162

     occupation numbers 
     1.0000   1.0000   1.0000   1.0000   1.0000   1.0000   1.0000   1.0000
    -0.0315  -0.0000  -0.0000  -0.0000  -0.0000  -0.0000  -0.0000  -0.0000
    -0.0000  -0.0000  -0.0000  -0.0000  -0.0000  -0.0000  -0.0000  -0.0000

          k = 0.3333 0.5774 0.0000 (  8181 PWs)   bands (ev):

   -15.9041 -15.9041 -12.5789 -12.5789 -12.0887  -9.1373  -6.4651  -6.4651
    -2.8071  -2.8071  -1.9336  -1.3137  -1.3137   0.7203   0.7203   3.2750
     4.7138   5.0910   5.0910   5.6418   5.6418   5.9950   6.1234   7.1312

     occupation numbers 
     1.0000   1.0000   1.0000   1.0000   1.0000   1.0000   1.0000   1.0000
    -0.0000  -0.0000  -0.0000  -0.0000  -0.0000  -0.0000  -0.0000  -0.0000
    -0.0000  -0.0000  -0.0000  -0.0000  -0.0000  -0.0000  -0.0000  -0.0000

     the Fermi energy is    -4.0972 ev

!    total energy              =     -37.46981523 Ry
     estimated scf accuracy    <          1.9E-10 Ry
     smearing contrib. (-TS)   =       0.00080239 Ry
     internal energy E=F+TS    =     -37.47061762 Ry

     The total energy is F=E-TS. E is the sum of the following terms:
     one-electron contribution =    -769.86932420 Ry
     hartree contribution      =     386.72890117 Ry
     xc contribution           =     -17.38109405 Ry
     ewald contribution        =     363.05089945 Ry

     convergence has been achieved in  18 iterations

     Writing all to output data dir ./out_fp/bk_up000.save/ :
     XML data file, charge density, pseudopotentials, collected wavefunctions

     init_run     :      1.10s CPU      1.16s WALL (       1 calls)
     electrons    :     35.38s CPU     36.45s WALL (       1 calls)

     Called by init_run:
     wfcinit      :      0.70s CPU      0.72s WALL (       1 calls)
     wfcinit:atom :      0.01s CPU      0.01s WALL (      37 calls)
     wfcinit:wfcr :      0.58s CPU      0.60s WALL (      37 calls)
     potinit      :      0.20s CPU      0.22s WALL (       1 calls)
     hinit0       :      0.13s CPU      0.13s WALL (       1 calls)

     Called by electrons:
     c_bands      :     28.05s CPU     28.52s WALL (      18 calls)
     sum_band     :      4.89s CPU      5.19s WALL (      18 calls)
     v_of_rho     :      0.75s CPU      0.87s WALL (      19 calls)
     v_h          :      0.04s CPU      0.06s WALL (      19 calls)
     v_xc         :      0.71s CPU      0.81s WALL (      19 calls)
     newd         :      0.42s CPU      0.59s WALL (      19 calls)
     mix_rho      :      1.28s CPU      1.32s WALL (      18 calls)

     Called by c_bands:
     init_us_2    :      0.57s CPU      0.57s WALL (    1369 calls)
     cegterg      :     27.10s CPU     27.55s WALL (     666 calls)

     Called by sum_band:
     sum_band:wei :      0.01s CPU      0.01s WALL (      18 calls)
     sum_band:loo :      4.40s CPU      4.49s WALL (      18 calls)
     sum_band:buf :      0.05s CPU      0.05s WALL (     666 calls)
     sum_band:ini :      0.26s CPU      0.26s WALL (     666 calls)
     sum_band:cal :      0.33s CPU      0.33s WALL (     666 calls)
     sum_band:bec :      0.00s CPU      0.00s WALL (     666 calls)
     addusdens    :      0.41s CPU      0.62s WALL (      18 calls)
                                        0.00s GPU  (      18 calls)
     addusd:skk   :      0.01s CPU      0.03s WALL (      18 calls)
                                        0.00s GPU  (      18 calls)

     Called by *egterg:
     cdiaghg      :      0.96s CPU      0.97s WALL (    3646 calls)
     cegterg:over :      1.36s CPU      1.37s WALL (    2980 calls)
     cegterg:upda :      0.84s CPU      0.85s WALL (    2980 calls)
     cegterg:last :      1.27s CPU      1.28s WALL (    1402 calls)
     h_psi        :     21.45s CPU     21.89s WALL (    3683 calls)
     s_psi        :      0.77s CPU      0.77s WALL (    3683 calls)
     g_psi        :      0.31s CPU      0.32s WALL (    2980 calls)

     Called by h_psi:
     h_psi:calbec :      1.24s CPU      1.27s WALL (    3683 calls)
     vloc_psi     :     19.21s CPU     19.62s WALL (    3683 calls)
                                        0.00s GPU  (    3683 calls)
     add_vuspsi   :      0.88s CPU      0.89s WALL (    3683 calls)

     General routines
     calbec       :      1.56s CPU      1.60s WALL (    4349 calls)
     fft          :      0.38s CPU      0.42s WALL (     245 calls)
     ffts         :      0.72s CPU      0.74s WALL (    2016 calls)
     fftw         :     20.62s CPU     21.06s WALL (   98872 calls)
     interpolate  :      0.18s CPU      0.18s WALL (      19 calls)

     Parallel routines

     PWSCF        :     36.52s CPU     37.67s WALL


   This run was terminated on:   6:54:10  20Jun2026            

=------------------------------------------------------------------------------=
   JOB DONE.
=------------------------------------------------------------------------------=
