
     Program PWSCF v.7.5 starts on 20Jun2026 at  6:39:38 

     This program is part of the open-source Quantum ESPRESSO suite
     for quantum simulation of materials; please cite
         "P. Giannozzi et al., J. Phys.:Condens. Matter 21 395502 (2009);
         "P. Giannozzi et al., J. Phys.:Condens. Matter 29 465901 (2017);
         "P. Giannozzi et al., J. Chem. Phys. 152 154105 (2020);
          URL http://www.quantum-espresso.org", 
     in publications or presentations arising from this work. More details at
     http://www.quantum-espresso.org/quote

     Parallel version (MPI & OpenMP), running on       4 processor cores
     Number of MPI processes:                 4
     Threads/MPI process:                     1

     MPI processes distributed on     1 nodes
     1456 MiB available memory on the printing compute node when the environment starts

     Reading input from vc-relax.in

     Current dimensions of program PWSCF are:
     Max number of different atomic species (ntypx) = 10
     Max number of k-points (npk) =  40000
     Max angular momentum in pseudopotentials (lmaxx) =  4
     file B.pbe-n-rrkjus_psl.1.0.0.UPF: wavefunction(s)  2S renormalized

     R & G space division:  proc/nbgrp/npool/nimage =       4
     Subspace diagonalization in iterative solution of the eigenvalue problem:
     a serial algorithm will be used


     Parallelization info
     --------------------
     sticks:   dense  smooth     PW     G-vecs:    dense   smooth      PW
     Min         211     107     31                34335    12170    2024
     Max         212     109     33                34376    12185    2049
     Sum         847     433    127               137455    48711    8129

     Using Slab Decomposition



     bravais-lattice index     =            4
     lattice parameter (alat)  =       5.5747  a.u.
     unit-cell volume          =    1017.1880 (a.u.)^3
     number of atoms/cell      =            6
     number of atomic types    =            1
     number of electrons       =        18.00
     number of Kohn-Sham states=           13
     kinetic-energy cutoff     =      50.0000  Ry
     charge density cutoff     =     400.0000  Ry
     scf convergence threshold =      1.0E-08
     mixing beta               =       0.3000
     number of iterations used =            8  local-TF  mixing
     energy convergence thresh.=      1.0E-05
     force convergence thresh. =      1.0E-04
     press convergence thresh. =      1.0E-01
     Exchange-correlation= PBE
                           (   1   4   3   4   0   0   0)
     nstep                     =          200


     celldm(1)=   5.574692  celldm(2)=   0.000000  celldm(3)=   6.779661
     celldm(4)=   0.000000  celldm(5)=   0.000000  celldm(6)=   0.000000

     crystal axes: (cart. coord. in units of alat)
               a(1) = (   1.000000   0.000000   0.000000 )  
               a(2) = (  -0.500000   0.866025   0.000000 )  
               a(3) = (   0.000000   0.000000   6.779661 )  

     reciprocal axes: (cart. coord. in units 2 pi/alat)
               b(1) = (  1.000000  0.577350 -0.000000 )  
               b(2) = (  0.000000  1.154701  0.000000 )  
               b(3) = (  0.000000 -0.000000  0.147500 )  


     PseudoPot. # 1 for B  read from file:
     ./pseudo/B.pbe-n-rrkjus_psl.1.0.0.UPF
     MD5 check sum: 21bc42b8719306ef1fe0545c7dabf1c6
     Pseudo is Ultrasoft + core correction, Zval =  3.0
     Generated using &quot;atomic&quot; code by A. Dal Corso  v.6.3MaX
     Using radial grid of 1059 points,  4 beta functions with: 
                l(1) =   0
                l(2) =   0
                l(3) =   1
                l(4) =   1
     Q(r) pseudized with 0 coefficients 


     atomic species   valence    mass     pseudopotential
     B                 3.00    10.81100     B ( 1.00)

     24 Sym. Ops., with inversion, found


                                    s                        frac. trans.

      isym =  1     identity                                     

 cryst.   s( 1) = (     1          0          0      )
                  (     0          1          0      )
                  (     0          0          1      )

 cart.    s( 1) = (  1.0000000  0.0000000  0.0000000 )
                  (  0.0000000  1.0000000  0.0000000 )
                  (  0.0000000  0.0000000  1.0000000 )


      isym =  2     180 deg rotation - cart. axis [0,0,1]        

 cryst.   s( 2) = (    -1          0          0      )
                  (     0         -1          0      )
                  (     0          0          1      )

 cart.    s( 2) = ( -1.0000000  0.0000000  0.0000000 )
                  (  0.0000000 -1.0000000  0.0000000 )
                  (  0.0000000  0.0000000  1.0000000 )


      isym =  3     180 deg rotation - cart. axis [0,1,0]        

 cryst.   s( 3) = (    -1          0          0      )
                  (     1          1          0      )
                  (     0          0         -1      )

 cart.    s( 3) = ( -1.0000000  0.0000000  0.0000000 )
                  (  0.0000000  1.0000000  0.0000000 )
                  (  0.0000000  0.0000000 -1.0000000 )


      isym =  4     180 deg rotation - cart. axis [1,0,0]        

 cryst.   s( 4) = (     1          0          0      )
                  (    -1         -1          0      )
                  (     0          0         -1      )

 cart.    s( 4) = (  1.0000000  0.0000000  0.0000000 )
                  (  0.0000000 -1.0000000  0.0000000 )
                  (  0.0000000  0.0000000 -1.0000000 )


      isym =  5      60 deg rotation - cryst. axis [0,0,1]       

 cryst.   s( 5) = (     1          1          0      )
                  (    -1          0          0      )
                  (     0          0          1      )

 cart.    s( 5) = (  0.5000000 -0.8660254  0.0000000 )
                  (  0.8660254  0.5000000  0.0000000 )
                  (  0.0000000  0.0000000  1.0000000 )


      isym =  6      60 deg rotation - cryst. axis [0,0,-1]      

 cryst.   s( 6) = (     0         -1          0      )
                  (     1          1          0      )
                  (     0          0          1      )

 cart.    s( 6) = (  0.5000000  0.8660254  0.0000000 )
                  ( -0.8660254  0.5000000  0.0000000 )
                  (  0.0000000  0.0000000  1.0000000 )


      isym =  7     120 deg rotation - cryst. axis [0,0,1]       

 cryst.   s( 7) = (     0          1          0      )
                  (    -1         -1          0      )
                  (     0          0          1      )

 cart.    s( 7) = ( -0.5000000 -0.8660254  0.0000000 )
                  (  0.8660254 -0.5000000  0.0000000 )
                  (  0.0000000  0.0000000  1.0000000 )


      isym =  8     120 deg rotation - cryst. axis [0,0,-1]      

 cryst.   s( 8) = (    -1         -1          0      )
                  (     1          0          0      )
                  (     0          0          1      )

 cart.    s( 8) = ( -0.5000000  0.8660254  0.0000000 )
                  ( -0.8660254 -0.5000000  0.0000000 )
                  (  0.0000000  0.0000000  1.0000000 )


      isym =  9     180 deg rotation - cryst. axis [1,-1,0]      

 cryst.   s( 9) = (     0         -1          0      )
                  (    -1          0          0      )
                  (     0          0         -1      )

 cart.    s( 9) = (  0.5000000 -0.8660254  0.0000000 )
                  ( -0.8660254 -0.5000000  0.0000000 )
                  (  0.0000000  0.0000000 -1.0000000 )


      isym = 10     180 deg rotation - cryst. axis [2,1,0]       

 cryst.   s(10) = (     1          1          0      )
                  (     0         -1          0      )
                  (     0          0         -1      )

 cart.    s(10) = (  0.5000000  0.8660254  0.0000000 )
                  (  0.8660254 -0.5000000  0.0000000 )
                  (  0.0000000  0.0000000 -1.0000000 )


      isym = 11     180 deg rotation - cryst. axis [0,1,0]       

 cryst.   s(11) = (    -1         -1          0      )
                  (     0          1          0      )
                  (     0          0         -1      )

 cart.    s(11) = ( -0.5000000 -0.8660254  0.0000000 )
                  ( -0.8660254  0.5000000  0.0000000 )
                  (  0.0000000  0.0000000 -1.0000000 )


      isym = 12     180 deg rotation - cryst. axis [1,1,0]       

 cryst.   s(12) = (     0          1          0      )
                  (     1          0          0      )
                  (     0          0         -1      )

 cart.    s(12) = ( -0.5000000  0.8660254  0.0000000 )
                  (  0.8660254  0.5000000  0.0000000 )
                  (  0.0000000  0.0000000 -1.0000000 )


      isym = 13     inversion                                    

 cryst.   s(13) = (    -1          0          0      )
                  (     0         -1          0      )
                  (     0          0         -1      )

 cart.    s(13) = ( -1.0000000  0.0000000  0.0000000 )
                  (  0.0000000 -1.0000000  0.0000000 )
                  (  0.0000000  0.0000000 -1.0000000 )


      isym = 14     inv. 180 deg rotation - cart. axis [0,0,1]   

 cryst.   s(14) = (     1          0          0      )
                  (     0          1          0      )
                  (     0          0         -1      )

 cart.    s(14) = (  1.0000000  0.0000000  0.0000000 )
                  (  0.0000000  1.0000000  0.0000000 )
                  (  0.0000000  0.0000000 -1.0000000 )


      isym = 15     inv. 180 deg rotation - cart. axis [0,1,0]   

 cryst.   s(15) = (     1          0          0      )
                  (    -1         -1          0      )
                  (     0          0          1      )

 cart.    s(15) = (  1.0000000  0.0000000  0.0000000 )
                  (  0.0000000 -1.0000000  0.0000000 )
                  (  0.0000000  0.0000000  1.0000000 )


      isym = 16     inv. 180 deg rotation - cart. axis [1,0,0]   

 cryst.   s(16) = (    -1          0          0      )
                  (     1          1          0      )
                  (     0          0          1      )

 cart.    s(16) = ( -1.0000000  0.0000000  0.0000000 )
                  (  0.0000000  1.0000000  0.0000000 )
                  (  0.0000000  0.0000000  1.0000000 )


      isym = 17     inv.  60 deg rotation - cryst. axis [0,0,1]  

 cryst.   s(17) = (    -1         -1          0      )
                  (     1          0          0      )
                  (     0          0         -1      )

 cart.    s(17) = ( -0.5000000  0.8660254  0.0000000 )
                  ( -0.8660254 -0.5000000  0.0000000 )
                  (  0.0000000  0.0000000 -1.0000000 )


      isym = 18     inv.  60 deg rotation - cryst. axis [0,0,-1] 

 cryst.   s(18) = (     0          1          0      )
                  (    -1         -1          0      )
                  (     0          0         -1      )

 cart.    s(18) = ( -0.5000000 -0.8660254  0.0000000 )
                  (  0.8660254 -0.5000000  0.0000000 )
                  (  0.0000000  0.0000000 -1.0000000 )


      isym = 19     inv. 120 deg rotation - cryst. axis [0,0,1]  

 cryst.   s(19) = (     0         -1          0      )
                  (     1          1          0      )
                  (     0          0         -1      )

 cart.    s(19) = (  0.5000000  0.8660254  0.0000000 )
                  ( -0.8660254  0.5000000  0.0000000 )
                  (  0.0000000  0.0000000 -1.0000000 )


      isym = 20     inv. 120 deg rotation - cryst. axis [0,0,-1] 

 cryst.   s(20) = (     1          1          0      )
                  (    -1          0          0      )
                  (     0          0         -1      )

 cart.    s(20) = (  0.5000000 -0.8660254  0.0000000 )
                  (  0.8660254  0.5000000  0.0000000 )
                  (  0.0000000  0.0000000 -1.0000000 )


      isym = 21     inv. 180 deg rotation - cryst. axis [1,-1,0] 

 cryst.   s(21) = (     0          1          0      )
                  (     1          0          0      )
                  (     0          0          1      )

 cart.    s(21) = ( -0.5000000  0.8660254  0.0000000 )
                  (  0.8660254  0.5000000  0.0000000 )
                  (  0.0000000  0.0000000  1.0000000 )


      isym = 22     inv. 180 deg rotation - cryst. axis [2,1,0]  

 cryst.   s(22) = (    -1         -1          0      )
                  (     0          1          0      )
                  (     0          0          1      )

 cart.    s(22) = ( -0.5000000 -0.8660254  0.0000000 )
                  ( -0.8660254  0.5000000  0.0000000 )
                  (  0.0000000  0.0000000  1.0000000 )


      isym = 23     inv. 180 deg rotation - cryst. axis [0,1,0]  

 cryst.   s(23) = (     1          1          0      )
                  (     0         -1          0      )
                  (     0          0          1      )

 cart.    s(23) = (  0.5000000  0.8660254  0.0000000 )
                  (  0.8660254 -0.5000000  0.0000000 )
                  (  0.0000000  0.0000000  1.0000000 )


      isym = 24     inv. 180 deg rotation - cryst. axis [1,1,0]  

 cryst.   s(24) = (     0         -1          0      )
                  (    -1          0          0      )
                  (     0          0          1      )

 cart.    s(24) = (  0.5000000 -0.8660254  0.0000000 )
                  ( -0.8660254 -0.5000000  0.0000000 )
                  (  0.0000000  0.0000000  1.0000000 )


     point group D_6h(6/mmm)
     there are 12 classes
     the character table:

       E     2C6   2C3   C2    3C2'  3C2'' i     2S3   2S6   s_h   3s_d  3s_v 
A_1g   1.00  1.00  1.00  1.00  1.00  1.00  1.00  1.00  1.00  1.00  1.00  1.00
A_2g   1.00  1.00  1.00  1.00 -1.00 -1.00  1.00  1.00  1.00  1.00 -1.00 -1.00
B_1g   1.00 -1.00  1.00 -1.00  1.00 -1.00  1.00 -1.00  1.00 -1.00  1.00 -1.00
B_2g   1.00 -1.00  1.00 -1.00 -1.00  1.00  1.00 -1.00  1.00 -1.00 -1.00  1.00
E_1g   2.00  1.00 -1.00 -2.00  0.00  0.00  2.00  1.00 -1.00 -2.00  0.00  0.00
E_2g   2.00 -1.00 -1.00  2.00  0.00  0.00  2.00 -1.00 -1.00  2.00  0.00  0.00
A_1u   1.00  1.00  1.00  1.00  1.00  1.00 -1.00 -1.00 -1.00 -1.00 -1.00 -1.00
A_2u   1.00  1.00  1.00  1.00 -1.00 -1.00 -1.00 -1.00 -1.00 -1.00  1.00  1.00
B_1u   1.00 -1.00  1.00 -1.00  1.00 -1.00 -1.00  1.00 -1.00  1.00 -1.00  1.00
B_2u   1.00 -1.00  1.00 -1.00 -1.00  1.00 -1.00  1.00 -1.00  1.00  1.00 -1.00
E_1u   2.00  1.00 -1.00 -2.00  0.00  0.00 -2.00 -1.00  1.00  2.00  0.00  0.00
E_2u   2.00 -1.00 -1.00  2.00  0.00  0.00 -2.00  1.00  1.00 -2.00  0.00  0.00

     the symmetry operations in each class and the name of the first element:

     E        1
          identity                                               
     2C6      5    6
           60 deg rotation - cryst. axis [0,0,1]                 
     2C3      7    8
          120 deg rotation - cryst. axis [0,0,1]                 
     C2       2
          180 deg rotation - cart. axis [0,0,1]                  
     3C2'     4   12   11
          180 deg rotation - cart. axis [1,0,0]                  
     3C2''    3    9   10
          180 deg rotation - cart. axis [0,1,0]                  
     i       13
          inversion                                              
     2S3     17   18
          inv.  60 deg rotation - cryst. axis [0,0,1]            
     2S6     19   20
          inv. 120 deg rotation - cryst. axis [0,0,1]            
     s_h     14
          inv. 180 deg rotation - cart. axis [0,0,1]             
     3s_d    16   24   23
          inv. 180 deg rotation - cart. axis [1,0,0]             
     3s_v    15   21   22
          inv. 180 deg rotation - cart. axis [0,1,0]             

   Cartesian axes

     site n.     atom                  positions (alat units)
         1        B      tau(   1) = (   0.5000000   0.0000000   3.0508475  )
         2        B      tau(   2) = (  -0.2500000   0.4330127   3.0508475  )
         3        B      tau(   3) = (   0.2500000   0.4330127   3.0508475  )
         4        B      tau(   4) = (   0.5000000   0.0000000   3.7288136  )
         5        B      tau(   5) = (  -0.2500000   0.4330127   3.7288136  )
         6        B      tau(   6) = (   0.2500000   0.4330127   3.7288136  )

   Crystallographic axes

     site n.     atom                  positions (cryst. coord.)
         1        B      tau(   1) = (  0.5000000  0.0000000  0.4500000  )
         2        B      tau(   2) = (  0.0000000  0.5000000  0.4500000  )
         3        B      tau(   3) = (  0.5000000  0.5000000  0.4500000  )
         4        B      tau(   4) = (  0.5000000  0.0000000  0.5500000  )
         5        B      tau(   5) = (  0.0000000  0.5000000  0.5500000  )
         6        B      tau(   6) = (  0.5000000  0.5000000  0.5500000  )

     number of k points=    19  Methfessel-Paxton smearing, width (Ry)=  0.0200
                       cart. coord. in units 2pi/alat
        k(    1) = (   0.0000000   0.0000000   0.0000000), wk =   0.0138889
        k(    2) = (   0.0000000   0.0962250   0.0000000), wk =   0.0833333
        k(    3) = (   0.0000000   0.1924501   0.0000000), wk =   0.0833333
        k(    4) = (   0.0000000   0.2886751   0.0000000), wk =   0.0833333
        k(    5) = (   0.0000000   0.3849002   0.0000000), wk =   0.0833333
        k(    6) = (   0.0000000   0.4811252   0.0000000), wk =   0.0833333
        k(    7) = (   0.0000000  -0.5773503   0.0000000), wk =   0.0416667
        k(    8) = (   0.0833333   0.1443376   0.0000000), wk =   0.0833333
        k(    9) = (   0.0833333   0.2405626   0.0000000), wk =   0.1666667
        k(   10) = (   0.0833333   0.3367877   0.0000000), wk =   0.1666667
        k(   11) = (   0.0833333   0.4330127   0.0000000), wk =   0.1666667
        k(   12) = (   0.0833333   0.5292377   0.0000000), wk =   0.1666667
        k(   13) = (   0.1666667   0.2886751   0.0000000), wk =   0.0833333
        k(   14) = (   0.1666667   0.3849002   0.0000000), wk =   0.1666667
        k(   15) = (   0.1666667   0.4811252   0.0000000), wk =   0.1666667
        k(   16) = (   0.1666667   0.5773503   0.0000000), wk =   0.0833333
        k(   17) = (   0.2500000   0.4330127   0.0000000), wk =   0.0833333
        k(   18) = (   0.2500000   0.5292377   0.0000000), wk =   0.1666667
        k(   19) = (   0.3333333   0.5773503   0.0000000), wk =   0.0277778

                       cryst. coord.
        k(    1) = (   0.0000000   0.0000000   0.0000000), wk =   0.0138889
        k(    2) = (   0.0000000   0.0833333   0.0000000), wk =   0.0833333
        k(    3) = (   0.0000000   0.1666667   0.0000000), wk =   0.0833333
        k(    4) = (   0.0000000   0.2500000   0.0000000), wk =   0.0833333
        k(    5) = (   0.0000000   0.3333333   0.0000000), wk =   0.0833333
        k(    6) = (   0.0000000   0.4166667   0.0000000), wk =   0.0833333
        k(    7) = (   0.0000000  -0.5000000   0.0000000), wk =   0.0416667
        k(    8) = (   0.0833333   0.0833333   0.0000000), wk =   0.0833333
        k(    9) = (   0.0833333   0.1666667   0.0000000), wk =   0.1666667
        k(   10) = (   0.0833333   0.2500000   0.0000000), wk =   0.1666667
        k(   11) = (   0.0833333   0.3333333   0.0000000), wk =   0.1666667
        k(   12) = (   0.0833333   0.4166667   0.0000000), wk =   0.1666667
        k(   13) = (   0.1666667   0.1666667   0.0000000), wk =   0.0833333
        k(   14) = (   0.1666667   0.2500000   0.0000000), wk =   0.1666667
        k(   15) = (   0.1666667   0.3333333   0.0000000), wk =   0.1666667
        k(   16) = (   0.1666667   0.4166667   0.0000000), wk =   0.0833333
        k(   17) = (   0.2500000   0.2500000   0.0000000), wk =   0.0833333
        k(   18) = (   0.2500000   0.3333333   0.0000000), wk =   0.1666667
        k(   19) = (   0.3333333   0.3333333   0.0000000), wk =   0.0277778

     Dense  grid:   137455 G-vectors     FFT dimensions: (  36,  36, 243)

     Smooth grid:    48711 G-vectors     FFT dimensions: (  25,  25, 180)

     Dynamical RAM for                 wfc:       0.30 MB

     Dynamical RAM for     wfc (w. buffer):       6.02 MB

     Dynamical RAM for           str. fact:       0.52 MB

     Dynamical RAM for           local pot:       0.00 MB

     Dynamical RAM for          nlocal pot:       1.11 MB

     Dynamical RAM for                qrad:       0.92 MB

     Dynamical RAM for          rho,v,vnew:       3.38 MB

     Dynamical RAM for               rhoin:       1.13 MB

     Dynamical RAM for            rho*nmix:       8.39 MB

     Dynamical RAM for           G-vectors:       2.06 MB

     Dynamical RAM for          h,s,v(r/c):       0.03 MB

     Dynamical RAM for          <psi|beta>:       0.01 MB

     Dynamical RAM for                 psi:       0.60 MB

     Dynamical RAM for                hpsi:       0.60 MB

     Dynamical RAM for                spsi:       0.60 MB

     Dynamical RAM for      wfcinit/wfcrot:       0.61 MB

     Dynamical RAM for           addusdens:      25.70 MB

     Dynamical RAM for          addusforce:      31.21 MB

     Dynamical RAM for         addusstress:      26.23 MB

     Estimated static dynamical RAM per process >      19.21 MB

     Estimated max dynamical RAM per process >      58.82 MB

     Estimated total dynamical RAM >     235.28 MB
 ----2D----2D----2D----2D----2D----2D----2D----2D----2D----2D----2D----2D
  The code is running with the 2D cutoff
  Please refer to:
  Sohier, T., Calandra, M., & Mauri, F. (2017), 
  Density functional perturbation theory for gated two-dimensional heterostructures:
  Theoretical developments and application to flexural phonons in graphene.
  Physical Review B, 96(7), 75448. https://doi.org/10.1103/PhysRevB.96.075448
 ----2D----2D----2D----2D----2D----2D----2D----2D----2D----2D----2D----2D

     Initial potential from superposition of free atoms

     starting charge      17.9983, renormalised to      18.0000

     negative rho (up, down):  1.270E-04 0.000E+00
     Starting wfcs are   24 randomized atomic wfcs

     total cpu time spent up to now is        0.4 secs

     per-process dynamical memory:    34.1 Mb

     Self-consistent Calculation

     iteration #  1     ecut=    50.00 Ry     beta= 0.30
     Davidson diagonalization with overlap

---- Real-time Memory Report at c_bands before calling an iterative solver
           102 MiB given to the printing process from OS
            33 MiB allocation reported by mallinfo(arena+hblkhd)
          1289 MiB available memory on the node where the printing process lives
------------------
     ethr =  1.00E-02,  avg # of iterations =  2.4

     negative rho (up, down):  4.512E-07 0.000E+00

     total cpu time spent up to now is        0.7 secs

     total energy              =     -37.32977676 Ry
     estimated scf accuracy    <       1.05552619 Ry

     iteration #  2     ecut=    50.00 Ry     beta= 0.30
     Davidson diagonalization with overlap

---- Real-time Memory Report at c_bands before calling an iterative solver
           111 MiB given to the printing process from OS
            58 MiB allocation reported by mallinfo(arena+hblkhd)
          1281 MiB available memory on the node where the printing process lives
------------------
     ethr =  5.86E-03,  avg # of iterations =  1.0

     negative rho (up, down):  5.235E-03 0.000E+00

     total cpu time spent up to now is        0.8 secs

     total energy              =     -36.96003122 Ry
     estimated scf accuracy    <       0.77563791 Ry

     iteration #  3     ecut=    50.00 Ry     beta= 0.30
     Davidson diagonalization with overlap

---- Real-time Memory Report at c_bands before calling an iterative solver
           114 MiB given to the printing process from OS
            60 MiB allocation reported by mallinfo(arena+hblkhd)
          1262 MiB available memory on the node where the printing process lives
------------------
     ethr =  4.31E-03,  avg # of iterations =  2.0

     negative rho (up, down):  2.261E-06 0.000E+00

     total cpu time spent up to now is        1.0 secs

     total energy              =     -37.07225008 Ry
     estimated scf accuracy    <       0.11666225 Ry

     iteration #  4     ecut=    50.00 Ry     beta= 0.30
     Davidson diagonalization with overlap

---- Real-time Memory Report at c_bands before calling an iterative solver
           114 MiB given to the printing process from OS
            61 MiB allocation reported by mallinfo(arena+hblkhd)
          1262 MiB available memory on the node where the printing process lives
------------------
     ethr =  6.48E-04,  avg # of iterations =  1.9

     negative rho (up, down):  8.333E-07 0.000E+00

     total cpu time spent up to now is        1.2 secs

     total energy              =     -37.03733328 Ry
     estimated scf accuracy    <       0.12713573 Ry

     iteration #  5     ecut=    50.00 Ry     beta= 0.30
     Davidson diagonalization with overlap

---- Real-time Memory Report at c_bands before calling an iterative solver
           114 MiB given to the printing process from OS
            61 MiB allocation reported by mallinfo(arena+hblkhd)
          1261 MiB available memory on the node where the printing process lives
------------------
     ethr =  6.48E-04,  avg # of iterations =  2.9

     negative rho (up, down):  6.277E-07 0.000E+00

     total cpu time spent up to now is        1.4 secs

     total energy              =     -37.04311950 Ry
     estimated scf accuracy    <       0.03443715 Ry

     iteration #  6     ecut=    50.00 Ry     beta= 0.30
     Davidson diagonalization with overlap

---- Real-time Memory Report at c_bands before calling an iterative solver
           115 MiB given to the printing process from OS
            62 MiB allocation reported by mallinfo(arena+hblkhd)
          1262 MiB available memory on the node where the printing process lives
------------------
     ethr =  1.91E-04,  avg # of iterations =  3.7

     negative rho (up, down):  1.408E-02 0.000E+00

     total cpu time spent up to now is        1.7 secs

     total energy              =     -37.04322962 Ry
     estimated scf accuracy    <       0.02311172 Ry

     iteration #  7     ecut=    50.00 Ry     beta= 0.30
     Davidson diagonalization with overlap

---- Real-time Memory Report at c_bands before calling an iterative solver
           115 MiB given to the printing process from OS
            62 MiB allocation reported by mallinfo(arena+hblkhd)
          1262 MiB available memory on the node where the printing process lives
------------------
     ethr =  1.28E-04,  avg # of iterations =  2.0

     negative rho (up, down):  2.660E-02 0.000E+00

     total cpu time spent up to now is        1.9 secs

     total energy              =     -37.04240259 Ry
     estimated scf accuracy    <       0.04185275 Ry

     iteration #  8     ecut=    50.00 Ry     beta= 0.30
     Davidson diagonalization with overlap

---- Real-time Memory Report at c_bands before calling an iterative solver
           115 MiB given to the printing process from OS
            62 MiB allocation reported by mallinfo(arena+hblkhd)
          1255 MiB available memory on the node where the printing process lives
------------------
     ethr =  1.28E-04,  avg # of iterations =  1.9

     negative rho (up, down):  3.504E-02 0.000E+00

     total cpu time spent up to now is        2.1 secs

     total energy              =     -37.03226704 Ry
     estimated scf accuracy    <       0.02944025 Ry

     iteration #  9     ecut=    50.00 Ry     beta= 0.30
     Davidson diagonalization with overlap

---- Real-time Memory Report at c_bands before calling an iterative solver
           116 MiB given to the printing process from OS
            63 MiB allocation reported by mallinfo(arena+hblkhd)
          1255 MiB available memory on the node where the printing process lives
------------------
     ethr =  1.28E-04,  avg # of iterations =  2.5

     negative rho (up, down):  3.640E-02 0.000E+00

     total cpu time spent up to now is        2.3 secs

     total energy              =     -37.03105713 Ry
     estimated scf accuracy    <       0.02223584 Ry

     iteration # 10     ecut=    50.00 Ry     beta= 0.30
     Davidson diagonalization with overlap

---- Real-time Memory Report at c_bands before calling an iterative solver
           116 MiB given to the printing process from OS
            63 MiB allocation reported by mallinfo(arena+hblkhd)
          1254 MiB available memory on the node where the printing process lives
------------------
     ethr =  1.24E-04,  avg # of iterations =  1.0

     negative rho (up, down):  1.755E-02 0.000E+00

     total cpu time spent up to now is        2.4 secs

     total energy              =     -37.02545078 Ry
     estimated scf accuracy    <       0.01887964 Ry

     iteration # 11     ecut=    50.00 Ry     beta= 0.30
     Davidson diagonalization with overlap

---- Real-time Memory Report at c_bands before calling an iterative solver
           117 MiB given to the printing process from OS
            63 MiB allocation reported by mallinfo(arena+hblkhd)
          1255 MiB available memory on the node where the printing process lives
------------------
     ethr =  1.05E-04,  avg # of iterations =  2.4

     negative rho (up, down):  2.172E-02 0.000E+00

     total cpu time spent up to now is        2.6 secs

     total energy              =     -37.02021751 Ry
     estimated scf accuracy    <       0.00837332 Ry

     iteration # 12     ecut=    50.00 Ry     beta= 0.30
     Davidson diagonalization with overlap

---- Real-time Memory Report at c_bands before calling an iterative solver
           117 MiB given to the printing process from OS
            63 MiB allocation reported by mallinfo(arena+hblkhd)
          1255 MiB available memory on the node where the printing process lives
------------------
     ethr =  4.65E-05,  avg # of iterations =  5.1

     negative rho (up, down):  6.061E-03 0.000E+00

     total cpu time spent up to now is        2.9 secs

     total energy              =     -37.02388815 Ry
     estimated scf accuracy    <       0.00043662 Ry

     iteration # 13     ecut=    50.00 Ry     beta= 0.30
     Davidson diagonalization with overlap

---- Real-time Memory Report at c_bands before calling an iterative solver
           117 MiB given to the printing process from OS
            63 MiB allocation reported by mallinfo(arena+hblkhd)
          1255 MiB available memory on the node where the printing process lives
------------------
     c_bands:  1 eigenvalues not converged
     ethr =  2.43E-06,  avg # of iterations =  6.5

     negative rho (up, down):  3.056E-03 0.000E+00

     total cpu time spent up to now is        3.1 secs

     total energy              =     -37.02092632 Ry
     estimated scf accuracy    <       0.00549265 Ry

     iteration # 14     ecut=    50.00 Ry     beta= 0.30
     Davidson diagonalization with overlap

---- Real-time Memory Report at c_bands before calling an iterative solver
           117 MiB given to the printing process from OS
            63 MiB allocation reported by mallinfo(arena+hblkhd)
          1255 MiB available memory on the node where the printing process lives
------------------
     c_bands:  2 eigenvalues not converged
     c_bands:  1 eigenvalues not converged
     ethr =  2.43E-06,  avg # of iterations =  8.4

     negative rho (up, down):  2.259E-03 0.000E+00

     total cpu time spent up to now is        3.4 secs

     total energy              =     -37.02260741 Ry
     estimated scf accuracy    <       0.00066172 Ry

     iteration # 15     ecut=    50.00 Ry     beta= 0.30
     Davidson diagonalization with overlap

---- Real-time Memory Report at c_bands before calling an iterative solver
           117 MiB given to the printing process from OS
            63 MiB allocation reported by mallinfo(arena+hblkhd)
          1256 MiB available memory on the node where the printing process lives
------------------
     ethr =  2.43E-06,  avg # of iterations =  2.3

     negative rho (up, down):  6.445E-04 0.000E+00

     total cpu time spent up to now is        3.6 secs

     total energy              =     -37.02250494 Ry
     estimated scf accuracy    <       0.00038138 Ry

     iteration # 16     ecut=    50.00 Ry     beta= 0.30
     Davidson diagonalization with overlap

---- Real-time Memory Report at c_bands before calling an iterative solver
           117 MiB given to the printing process from OS
            63 MiB allocation reported by mallinfo(arena+hblkhd)
          1256 MiB available memory on the node where the printing process lives
------------------
     ethr =  2.12E-06,  avg # of iterations =  4.1

     negative rho (up, down):  5.424E-04 0.000E+00

     total cpu time spent up to now is        3.9 secs

     total energy              =     -37.02252245 Ry
     estimated scf accuracy    <       0.00004675 Ry

     iteration # 17     ecut=    50.00 Ry     beta= 0.30
     Davidson diagonalization with overlap

---- Real-time Memory Report at c_bands before calling an iterative solver
           117 MiB given to the printing process from OS
            63 MiB allocation reported by mallinfo(arena+hblkhd)
          1256 MiB available memory on the node where the printing process lives
------------------
     ethr =  2.60E-07,  avg # of iterations =  2.1

     negative rho (up, down):  4.656E-04 0.000E+00

     total cpu time spent up to now is        4.1 secs

     total energy              =     -37.02252848 Ry
     estimated scf accuracy    <       0.00000270 Ry

     iteration # 18     ecut=    50.00 Ry     beta= 0.30
     Davidson diagonalization with overlap

---- Real-time Memory Report at c_bands before calling an iterative solver
           117 MiB given to the printing process from OS
            63 MiB allocation reported by mallinfo(arena+hblkhd)
          1256 MiB available memory on the node where the printing process lives
------------------
     ethr =  1.50E-08,  avg # of iterations =  2.8

     negative rho (up, down):  4.635E-04 0.000E+00

     total cpu time spent up to now is        4.3 secs

     total energy              =     -37.02252977 Ry
     estimated scf accuracy    <       0.00000061 Ry

     iteration # 19     ecut=    50.00 Ry     beta= 0.30
     Davidson diagonalization with overlap

---- Real-time Memory Report at c_bands before calling an iterative solver
           117 MiB given to the printing process from OS
            63 MiB allocation reported by mallinfo(arena+hblkhd)
          1256 MiB available memory on the node where the printing process lives
------------------
     ethr =  3.39E-09,  avg # of iterations =  2.5

     negative rho (up, down):  5.089E-04 0.000E+00

     total cpu time spent up to now is        4.5 secs

     total energy              =     -37.02252991 Ry
     estimated scf accuracy    <       0.00000025 Ry

     iteration # 20     ecut=    50.00 Ry     beta= 0.30
     Davidson diagonalization with overlap

---- Real-time Memory Report at c_bands before calling an iterative solver
           117 MiB given to the printing process from OS
            63 MiB allocation reported by mallinfo(arena+hblkhd)
          1256 MiB available memory on the node where the printing process lives
------------------
     ethr =  1.38E-09,  avg # of iterations =  1.4

     negative rho (up, down):  5.186E-04 0.000E+00

     total cpu time spent up to now is        4.7 secs

     total energy              =     -37.02252993 Ry
     estimated scf accuracy    <       0.00000002 Ry

     iteration # 21     ecut=    50.00 Ry     beta= 0.30
     Davidson diagonalization with overlap

---- Real-time Memory Report at c_bands before calling an iterative solver
           117 MiB given to the printing process from OS
            63 MiB allocation reported by mallinfo(arena+hblkhd)
          1256 MiB available memory on the node where the printing process lives
------------------
     ethr =  9.80E-11,  avg # of iterations =  2.7

     negative rho (up, down):  5.159E-04 0.000E+00

     total cpu time spent up to now is        4.9 secs

     End of self-consistent calculation

          k = 0.0000 0.0000 0.0000 (  6085 PWs)   bands (ev):

   -21.9205 -17.8390 -13.9836 -12.9984 -12.3525  -6.7974  -6.7974  -5.8408
    -4.8718  -4.8718  -0.7977  -0.3390   0.4493

     occupation numbers 
     1.0000   1.0000   1.0000   1.0000   1.0000   1.0000   1.0000   1.0000
     1.0035   1.0035  -0.0000  -0.0000  -0.0000

          k = 0.0000 0.0962 0.0000 (  6105 PWs)   bands (ev):

   -21.8097 -17.7428 -14.0812 -12.8610 -12.3866  -7.3347  -6.8344  -5.7209
    -5.2831  -4.8276  -0.6434  -0.1814   0.4094

     occupation numbers 
     1.0000   1.0000   1.0000   1.0000   1.0000   1.0000   1.0000   1.0000
     1.0000   1.0063  -0.0000  -0.0000  -0.0000

          k = 0.0000 0.1925 0.0000 (  6063 PWs)   bands (ev):

   -21.4794 -17.4566 -14.3923 -12.5032 -12.4520  -8.5212  -6.9320  -6.3127
    -5.3206  -4.7063  -0.3458  -0.1535   0.2900

     occupation numbers 
     1.0000   1.0000   1.0000   1.0000   1.0000   1.0000   1.0000   1.0000
     1.0000   1.0219  -0.0000  -0.0000  -0.0000

          k = 0.0000 0.2887 0.0000 (  6071 PWs)   bands (ev):

   -20.9369 -16.9889 -14.9661 -12.7487 -11.7854  -9.7278  -7.4676  -7.0585
    -4.6997  -4.5390  -1.9569   0.5949   1.0695

     occupation numbers 
     1.0000   1.0000   1.0000   1.0000   1.0000   1.0000   1.0000   1.0000
     1.0230   1.0263  -0.0000  -0.0000  -0.0000

          k = 0.0000 0.3849 0.0000 (  6083 PWs)   bands (ev):

   -20.1993 -16.3569 -15.8254 -13.1905 -10.9729 -10.5252  -8.4375  -7.1781
    -4.3702  -3.8550  -3.8473   1.6596   2.0384

     occupation numbers 
     1.0000   1.0000   1.0000   1.0000   1.0000   1.0000   1.0000   1.0000
     0.8045  -0.0276  -0.0263  -0.0000  -0.0000

          k = 0.0000 0.4811 0.0000 (  6071 PWs)   bands (ev):

   -19.3129 -16.8639 -15.5993 -13.8508 -11.1742  -9.7731  -9.0367  -7.2620
    -5.5586  -4.2460  -2.8750   0.9081   1.8895

     occupation numbers 
     1.0000   1.0000   1.0000   1.0000   1.0000   1.0000   1.0000   1.0000
     1.0000   0.4448  -0.0000  -0.0000  -0.0000

          k = 0.0000-0.5774 0.0000 (  6080 PWs)   bands (ev):

   -18.6310 -17.6138 -14.9557 -14.4719 -11.3197  -9.2313  -9.1258  -7.2919
    -6.4450  -4.2005  -2.2506   0.0967   1.9333

     occupation numbers 
     1.0000   1.0000   1.0000   1.0000   1.0000   1.0000   1.0000   1.0000
     1.0000   0.3089  -0.0000  -0.0000  -0.0000

          k = 0.0833 0.1443 0.0000 (  6057 PWs)   bands (ev):

   -21.5891 -17.5516 -14.2817 -12.5880 -12.4604  -8.2494  -6.8185  -6.0456
    -5.4430  -4.7083  -0.3372   0.1024   0.1331

     occupation numbers 
     1.0000   1.0000   1.0000   1.0000   1.0000   1.0000   1.0000   1.0000
     1.0000   1.0215  -0.0000  -0.0000  -0.0000

          k = 0.0833 0.2406 0.0000 (  6086 PWs)   bands (ev):

   -21.1525 -17.1744 -14.7021 -12.6307 -12.0518  -9.5369  -7.1686  -6.7500
    -4.9471  -4.4699  -1.1224   0.2609   0.7595

     occupation numbers 
     1.0000   1.0000   1.0000   1.0000   1.0000   1.0000   1.0000   1.0000
     1.0011   0.9784  -0.0000  -0.0000  -0.0000

          k = 0.0833 0.3368 0.0000 (  6072 PWs)   bands (ev):

   -20.5114 -16.6235 -15.3817 -12.9487 -11.3166 -10.6275  -8.2870  -6.6895
    -4.2158  -4.1760  -2.9009   0.8800   1.3078

     occupation numbers 
     1.0000   1.0000   1.0000   1.0000   1.0000   1.0000   1.0000   1.0000
     0.3534   0.2422  -0.0000  -0.0000  -0.0000

          k = 0.0833 0.4330 0.0000 (  6087 PWs)   bands (ev):

   -19.6928 -16.3105 -15.9252 -13.4745 -11.5178 -10.1914  -9.1214  -6.6623
    -4.6986  -3.9234  -3.2796   1.1047   1.6725

     occupation numbers 
     1.0000   1.0000   1.0000   1.0000   1.0000   1.0000   1.0000   1.0000
     1.0232  -0.0354  -0.0000  -0.0000  -0.0000

          k = 0.0833 0.5292 0.0000 (  6082 PWs)   bands (ev):

   -18.8017 -17.3029 -15.1516 -14.1755 -11.8579  -9.5425  -9.2219  -6.7144
    -6.0548  -3.7699  -2.3564   0.4051   1.1782

     occupation numbers 
     1.0000   1.0000   1.0000   1.0000   1.0000   1.0000   1.0000   1.0000
     1.0000  -0.0139  -0.0000  -0.0000  -0.0000

          k = 0.1667 0.2887 0.0000 (  6092 PWs)   bands (ev):

   -20.6165 -16.7135 -15.1859 -12.8498 -11.4664 -10.7911  -8.3211  -6.2806
    -4.3311  -3.9752  -2.3165   0.1869   1.1244

     occupation numbers 
     1.0000   1.0000   1.0000   1.0000   1.0000   1.0000   1.0000   1.0000
     0.7023  -0.0303  -0.0000  -0.0000  -0.0000

          k = 0.1667 0.3849 0.0000 (  6085 PWs)   bands (ev):

   -19.8900 -16.0932 -15.8648 -13.1985 -12.0863 -10.4154  -9.3966  -5.8525
    -3.7790  -3.5055  -3.3802  -0.1142   2.1887

     occupation numbers 
     1.0000   1.0000   1.0000   1.0000   1.0000   1.0000   1.0000   1.0000
    -0.0152  -0.0003  -0.0000  -0.0000  -0.0000

          k = 0.1667 0.4811 0.0000 (  6072 PWs)   bands (ev):

   -19.0223 -16.7381 -15.3586 -13.7317 -12.7766 -10.1292  -9.3840  -5.9898
    -4.8319  -2.9084  -2.5240  -0.1822   1.1402

     occupation numbers 
     1.0000   1.0000   1.0000   1.0000   1.0000   1.0000   1.0000   1.0000
     1.0060  -0.0000  -0.0000  -0.0000  -0.0000

          k = 0.1667 0.5774 0.0000 (  6080 PWs)   bands (ev):

   -18.3588 -17.4190 -14.7625 -14.2600 -13.0021 -10.3811  -8.7010  -6.6131
    -4.9541  -2.7126  -1.9126  -0.1661   0.3618

     occupation numbers 
     1.0000   1.0000   1.0000   1.0000   1.0000   1.0000   1.0000   1.0000
     1.0010  -0.0000  -0.0000  -0.0000  -0.0000

          k = 0.2500 0.4330 0.0000 (  6070 PWs)   bands (ev):

   -19.1057 -16.4291 -15.4324 -13.5126 -13.2301 -10.4246  -9.4542  -5.6934
    -3.9243  -2.6204  -2.4207  -1.0202   1.4512

     occupation numbers 
     1.0000   1.0000   1.0000   1.0000   1.0000   1.0000   1.0000   1.0000
    -0.0354  -0.0000  -0.0000  -0.0000  -0.0000

          k = 0.2500 0.5292 0.0000 (  6038 PWs)   bands (ev):

   -18.2631 -17.1151 -14.7355 -13.9508 -13.8851 -11.0548  -8.4288  -6.5837
    -3.3394  -1.7846  -1.6666  -1.2897   0.3900

     occupation numbers 
     1.0000   1.0000   1.0000   1.0000   1.0000   1.0000   1.0000   1.0000
    -0.0000  -0.0000  -0.0000  -0.0000  -0.0000

          k = 0.3333 0.5774 0.0000 (  6036 PWs)   bands (ev):

   -17.5805 -17.5805 -14.3577 -14.2313 -14.2313 -11.4663  -7.4515  -7.4515
    -1.7374  -1.4931  -1.4931  -1.2201  -1.2201

     occupation numbers 
     1.0000   1.0000   1.0000   1.0000   1.0000   1.0000   1.0000   1.0000
    -0.0000  -0.0000  -0.0000  -0.0000  -0.0000

     the Fermi energy is    -4.2638 ev

!    total energy              =     -37.02252995 Ry
     estimated scf accuracy    <          6.5E-09 Ry
     smearing contrib. (-TS)   =      -0.00005880 Ry
     internal energy E=F+TS    =     -37.02247115 Ry

     The total energy is F=E-TS. E is the sum of the following terms:
     one-electron contribution =   -1047.54707893 Ry
     hartree contribution      =     525.56510783 Ry
     xc contribution           =     -18.92267584 Ry
     ewald contribution        =     503.88217580 Ry

     convergence has been achieved in  21 iterations

     negative rho (up, down):  5.159E-04 0.000E+00

     Forces acting on atoms (cartesian axes, Ry/au):

     atom    1 type  1   force =     0.00000000   -0.00000000   -0.04065425
     atom    2 type  1   force =     0.00000000    0.00000000   -0.04065425
     atom    3 type  1   force =     0.00000000   -0.00000000   -0.04065425
     atom    4 type  1   force =     0.00000000    0.00000000    0.04065425
     atom    5 type  1   force =     0.00000000   -0.00000000    0.04065425
     atom    6 type  1   force =     0.00000000    0.00000000    0.04065425
     The non-local contrib.  to forces
     atom    1 type  1   force =    -0.00000000   -0.00000000    0.04776450
     atom    2 type  1   force =     0.00000000    0.00000000    0.04776450
     atom    3 type  1   force =     0.00000000    0.00000000    0.04776450
     atom    4 type  1   force =     0.00000000    0.00000000   -0.04776450
     atom    5 type  1   force =    -0.00000000   -0.00000000   -0.04776450
     atom    6 type  1   force =     0.00000000   -0.00000000   -0.04776450
     The ionic contribution  to forces
     atom    1 type  1   force =    -0.00000000   -0.00000000  -12.67387614
     atom    2 type  1   force =     0.00000000   -0.00000000  -12.67387614
     atom    3 type  1   force =     0.00000000   -0.00000000  -12.67387614
     atom    4 type  1   force =    -0.00000000   -0.00000000   12.67387614
     atom    5 type  1   force =     0.00000000   -0.00000000   12.67387614
     atom    6 type  1   force =     0.00000000   -0.00000000   12.67387614
     The local contribution  to forces
     atom    1 type  1   force =     0.00000000   -0.00000000   12.58574610
     atom    2 type  1   force =    -0.00000000    0.00000000   12.58574610
     atom    3 type  1   force =     0.00000000    0.00000000   12.58574610
     atom    4 type  1   force =     0.00000000   -0.00000000  -12.58574610
     atom    5 type  1   force =    -0.00000000    0.00000000  -12.58574610
     atom    6 type  1   force =     0.00000000    0.00000000  -12.58574610
     The core correction contribution to forces
     atom    1 type  1   force =     0.00000000    0.00000000   -0.00035290
     atom    2 type  1   force =    -0.00000000    0.00000000   -0.00035290
     atom    3 type  1   force =     0.00000000    0.00000000   -0.00035290
     atom    4 type  1   force =     0.00000000   -0.00000000    0.00035290
     atom    5 type  1   force =    -0.00000000    0.00000000    0.00035290
     atom    6 type  1   force =    -0.00000000    0.00000000    0.00035290
     The Hubbard contrib.    to forces
     atom    1 type  1   force =     0.00000000    0.00000000    0.00000000
     atom    2 type  1   force =     0.00000000    0.00000000    0.00000000
     atom    3 type  1   force =     0.00000000    0.00000000    0.00000000
     atom    4 type  1   force =     0.00000000    0.00000000    0.00000000
     atom    5 type  1   force =     0.00000000    0.00000000    0.00000000
     atom    6 type  1   force =     0.00000000    0.00000000    0.00000000
     The SCF correction term to forces
     atom    1 type  1   force =     0.00000000    0.00000001    0.00006374
     atom    2 type  1   force =    -0.00000000   -0.00000000    0.00006374
     atom    3 type  1   force =    -0.00000001    0.00000000    0.00006374
     atom    4 type  1   force =    -0.00000000    0.00000001   -0.00006464
     atom    5 type  1   force =    -0.00000000    0.00000000   -0.00006464
     atom    6 type  1   force =    -0.00000000   -0.00000000   -0.00006466

     Total force =     0.099582     Total SCF correction =     0.000157


     Computing stress (Cartesian axis) and pressure


     negative rho (up, down):  5.159E-04 0.000E+00
          total   stress  (Ry/bohr**3)                   (kbar)     P=      334.43
   0.00318578   0.00000000   0.00000000          468.64        0.00        0.00
   0.00000000   0.00318578   0.00000000            0.00      468.64        0.00
   0.00000000   0.00000000   0.00044866            0.00        0.00       66.00

     kinetic stress (kbar)   2581.28      0.00      0.00
                                0.00   2581.28      0.00
                                0.00      0.00   2567.03

     local   stress (kbar)-155301.69      0.00      0.00
                                0.00-155301.69      0.00
                                0.00      0.00 156233.78

     nonloc. stress (kbar)    288.53      0.00      0.00
                                0.00    288.53      0.00
                                0.00      0.00    259.25

     hartree stress (kbar)  75869.12     -0.00     -0.00
                               -0.00  75869.12     -0.00
                               -0.00     -0.00 -75731.35

     exc-cor stress (kbar)    -91.52      0.00      0.00
                                0.00    -91.52      0.00
                                0.00      0.00   -118.06

     corecor stress (kbar)   -601.11     -0.00     -0.00
                               -0.00   -601.11     -0.00
                               -0.00     -0.00   -567.71

     ewald   stress (kbar)  77724.03     -0.00     -0.00
                               -0.00  77724.03     -0.00
                               -0.00     -0.00 -82576.94

     hubbard stress (kbar)      0.00      0.00      0.00
                                0.00      0.00      0.00
                                0.00      0.00      0.00

     DFT-D   stress (kbar)      0.00      0.00      0.00
                                0.00      0.00      0.00
                                0.00      0.00      0.00

     XDM     stress (kbar)      0.00      0.00      0.00
                                0.00      0.00      0.00
                                0.00      0.00      0.00

     dft-nl  stress (kbar)      0.00      0.00      0.00
                                0.00      0.00      0.00
                                0.00      0.00      0.00

     TS-vdW  stress (kbar)      0.00      0.00      0.00
                                0.00      0.00      0.00
                                0.00      0.00      0.00

     MDB     stress (kbar)      0.00      0.00      0.00
                                0.00      0.00      0.00
                                0.00      0.00      0.00

     3D-RISM stress (kbar)      0.00      0.00      0.00
                                0.00      0.00      0.00
                                0.00      0.00      0.00


     BFGS Geometry Optimization
     Energy error            =      1.1E-01 Ry
     Gradient error          =      4.1E-02 Ry/Bohr
     Cell gradient error     =      4.7E+02 kbar

     number of scf cycles    =   1
     number of bfgs steps    =   0

     enthalpy           new  =     -37.0225299513 Ry

     new trust radius        =       0.5000000000 bohr
     new conv_thr            =       0.0000000100 Ry

     new unit-cell volume =   1182.90496 a.u.^3 (   175.28843 Ang^3 )
     density =      0.61449 g/cm^3

CELL_PARAMETERS (alat=  5.57469200)
   1.078386160   0.000000000   0.000000000
  -0.539193080   0.933909809   0.000000000
   0.000000000   0.000000000   6.779661000

ATOMIC_POSITIONS (crystal)
B                0.5000000000       -0.0000000000        0.4489413288
B                0.0000000000        0.5000000000        0.4489413288
B                0.5000000000        0.5000000000        0.4489413288
B                0.5000000000        0.0000000000        0.5510586712
B                0.0000000000        0.5000000000        0.5510586712
B                0.5000000000        0.5000000000        0.5510586712



     Writing config-only to output data dir ./out/bkboro.save/ :
     XML data file
     NEW-OLD atomic charge density approx. for the potential
     New effective cutoffs (rho, wfc):  399.44   49.79

     negative rho (up, down):  4.357E-04 0.000E+00

     total cpu time spent up to now is        5.2 secs

     per-process dynamical memory:    65.5 Mb

     Self-consistent Calculation

     iteration #  1     ecut=    50.00 Ry     beta= 0.30
     Davidson diagonalization with overlap

---- Real-time Memory Report at c_bands before calling an iterative solver
           119 MiB given to the printing process from OS
            63 MiB allocation reported by mallinfo(arena+hblkhd)
          1256 MiB available memory on the node where the printing process lives
------------------
     c_bands:  1 eigenvalues not converged
     c_bands:  1 eigenvalues not converged
     ethr =  1.00E-06,  avg # of iterations = 10.7

     negative rho (up, down):  8.881E-04 0.000E+00

     total cpu time spent up to now is        5.6 secs

     total energy              =     -37.37395277 Ry
     estimated scf accuracy    <       0.03560081 Ry

     iteration #  2     ecut=    50.00 Ry     beta= 0.30
     Davidson diagonalization with overlap

---- Real-time Memory Report at c_bands before calling an iterative solver
           119 MiB given to the printing process from OS
            63 MiB allocation reported by mallinfo(arena+hblkhd)
          1256 MiB available memory on the node where the printing process lives
------------------
     ethr =  1.98E-04,  avg # of iterations =  1.0

     negative rho (up, down):  5.685E-03 0.000E+00

     total cpu time spent up to now is        5.8 secs

     total energy              =     -37.36620772 Ry
     estimated scf accuracy    <       0.02118230 Ry

     iteration #  3     ecut=    50.00 Ry     beta= 0.30
     Davidson diagonalization with overlap

---- Real-time Memory Report at c_bands before calling an iterative solver
           119 MiB given to the printing process from OS
            63 MiB allocation reported by mallinfo(arena+hblkhd)
          1256 MiB available memory on the node where the printing process lives
------------------
     ethr =  1.18E-04,  avg # of iterations =  2.5

     negative rho (up, down):  5.661E-03 0.000E+00

     total cpu time spent up to now is        6.0 secs

     total energy              =     -37.36946706 Ry
     estimated scf accuracy    <       0.00042260 Ry

     iteration #  4     ecut=    50.00 Ry     beta= 0.30
     Davidson diagonalization with overlap

---- Real-time Memory Report at c_bands before calling an iterative solver
           119 MiB given to the printing process from OS
            63 MiB allocation reported by mallinfo(arena+hblkhd)
          1256 MiB available memory on the node where the printing process lives
------------------
     ethr =  2.35E-06,  avg # of iterations =  4.4

     negative rho (up, down):  6.147E-03 0.000E+00

     total cpu time spent up to now is        6.2 secs

     total energy              =     -37.36947631 Ry
     estimated scf accuracy    <       0.00019212 Ry

     iteration #  5     ecut=    50.00 Ry     beta= 0.30
     Davidson diagonalization with overlap

---- Real-time Memory Report at c_bands before calling an iterative solver
           119 MiB given to the printing process from OS
            63 MiB allocation reported by mallinfo(arena+hblkhd)
          1256 MiB available memory on the node where the printing process lives
------------------
     ethr =  1.07E-06,  avg # of iterations =  1.5

     negative rho (up, down):  6.049E-03 0.000E+00

     total cpu time spent up to now is        6.4 secs

     total energy              =     -37.36947132 Ry
     estimated scf accuracy    <       0.00012399 Ry

     iteration #  6     ecut=    50.00 Ry     beta= 0.30
     Davidson diagonalization with overlap

---- Real-time Memory Report at c_bands before calling an iterative solver
           119 MiB given to the printing process from OS
            63 MiB allocation reported by mallinfo(arena+hblkhd)
          1256 MiB available memory on the node where the printing process lives
------------------
     ethr =  6.89E-07,  avg # of iterations =  1.4

     negative rho (up, down):  4.041E-03 0.000E+00

     total cpu time spent up to now is        6.6 secs

     total energy              =     -37.36935029 Ry
     estimated scf accuracy    <       0.00010209 Ry

     iteration #  7     ecut=    50.00 Ry     beta= 0.30
     Davidson diagonalization with overlap

---- Real-time Memory Report at c_bands before calling an iterative solver
           119 MiB given to the printing process from OS
            63 MiB allocation reported by mallinfo(arena+hblkhd)
          1256 MiB available memory on the node where the printing process lives
------------------
     ethr =  5.67E-07,  avg # of iterations =  4.0

     negative rho (up, down):  2.806E-03 0.000E+00

     total cpu time spent up to now is        6.8 secs

     total energy              =     -37.36928736 Ry
     estimated scf accuracy    <       0.00004035 Ry

     iteration #  8     ecut=    50.00 Ry     beta= 0.30
     Davidson diagonalization with overlap

---- Real-time Memory Report at c_bands before calling an iterative solver
           119 MiB given to the printing process from OS
            63 MiB allocation reported by mallinfo(arena+hblkhd)
          1256 MiB available memory on the node where the printing process lives
------------------
     ethr =  2.24E-07,  avg # of iterations =  2.9

     negative rho (up, down):  1.151E-03 0.000E+00

     total cpu time spent up to now is        7.0 secs

     total energy              =     -37.36925842 Ry
     estimated scf accuracy    <       0.00002233 Ry

     iteration #  9     ecut=    50.00 Ry     beta= 0.30
     Davidson diagonalization with overlap

---- Real-time Memory Report at c_bands before calling an iterative solver
           119 MiB given to the printing process from OS
            63 MiB allocation reported by mallinfo(arena+hblkhd)
          1256 MiB available memory on the node where the printing process lives
------------------
     ethr =  1.24E-07,  avg # of iterations =  2.9

     negative rho (up, down):  3.498E-04 0.000E+00

     total cpu time spent up to now is        7.2 secs

     total energy              =     -37.36925365 Ry
     estimated scf accuracy    <       0.00000755 Ry

     iteration # 10     ecut=    50.00 Ry     beta= 0.30
     Davidson diagonalization with overlap

---- Real-time Memory Report at c_bands before calling an iterative solver
           119 MiB given to the printing process from OS
            64 MiB allocation reported by mallinfo(arena+hblkhd)
          1256 MiB available memory on the node where the printing process lives
------------------
     ethr =  4.19E-08,  avg # of iterations =  3.3

     negative rho (up, down):  2.231E-04 0.000E+00

     total cpu time spent up to now is        7.5 secs

     total energy              =     -37.36925422 Ry
     estimated scf accuracy    <       0.00000052 Ry

     iteration # 11     ecut=    50.00 Ry     beta= 0.30
     Davidson diagonalization with overlap

---- Real-time Memory Report at c_bands before calling an iterative solver
           119 MiB given to the printing process from OS
            64 MiB allocation reported by mallinfo(arena+hblkhd)
          1256 MiB available memory on the node where the printing process lives
------------------
     ethr =  2.89E-09,  avg # of iterations =  2.4

     negative rho (up, down):  1.744E-04 0.000E+00

     total cpu time spent up to now is        7.7 secs

     total energy              =     -37.36925495 Ry
     estimated scf accuracy    <       0.00000009 Ry

     iteration # 12     ecut=    50.00 Ry     beta= 0.30
     Davidson diagonalization with overlap

---- Real-time Memory Report at c_bands before calling an iterative solver
           119 MiB given to the printing process from OS
            64 MiB allocation reported by mallinfo(arena+hblkhd)
          1256 MiB available memory on the node where the printing process lives
------------------
     ethr =  5.12E-10,  avg # of iterations =  1.9

     negative rho (up, down):  1.661E-04 0.000E+00

     total cpu time spent up to now is        7.8 secs

     End of self-consistent calculation

          k = 0.0000 0.0000 0.0000 (  6085 PWs)   bands (ev):

   -20.4611 -16.6437 -12.9810 -11.6017 -11.2636  -6.6505  -6.6505  -4.8691
    -4.6961  -4.6961  -1.5170  -0.6138  -0.1378

     occupation numbers 
     1.0000   1.0000   1.0000   1.0000   1.0000   1.0000   1.0000   1.0015
     1.0144   1.0144  -0.0000  -0.0000  -0.0000

          k =-0.0000 0.0892 0.0000 (  6105 PWs)   bands (ev):

   -20.3649 -16.5587 -13.1011 -11.4849 -11.3174  -7.1265  -6.7338  -5.0554
    -4.7594  -4.6830  -1.3283  -1.3243  -0.4810

     occupation numbers 
     1.0000   1.0000   1.0000   1.0000   1.0000   1.0000   1.0000   1.0000
     1.0072   1.0163  -0.0000  -0.0000  -0.0000

          k =-0.0000 0.1785 0.0000 (  6063 PWs)   bands (ev):

   -20.0781 -16.3058 -13.4699 -11.4894 -11.1378  -8.1329  -6.9402  -5.9079
    -4.6482  -4.4339  -1.4016  -0.8107  -0.0812

     occupation numbers 
     1.0000   1.0000   1.0000   1.0000   1.0000   1.0000   1.0000   1.0000
     1.0219   0.9991  -0.0000  -0.0000  -0.0000

          k =-0.0000 0.2677 0.0000 (  6071 PWs)   bands (ev):

   -19.6083 -15.8934 -14.0990 -11.8100 -10.5739  -9.1151  -7.1845  -6.8638
    -4.6030  -3.9013  -2.4149  -0.1385   0.5808

     occupation numbers 
     1.0000   1.0000   1.0000   1.0000   1.0000   1.0000   1.0000   1.0000
     1.0294  -0.0335  -0.0000  -0.0000  -0.0000

          k =-0.0000 0.3569 0.0000 (  6083 PWs)   bands (ev):

   -18.9735 -15.3392 -14.9522 -12.3085  -9.9681  -9.6734  -7.6449  -7.3979
    -4.5605  -3.8780  -3.1856   0.4606   1.4945

     occupation numbers 
     1.0000   1.0000   1.0000   1.0000   1.0000   1.0000   1.0000   1.0000
     1.0346  -0.0354  -0.0000  -0.0000  -0.0000

          k =-0.0000 0.4462 0.0000 (  6071 PWs)   bands (ev):

   -18.2270 -15.8922 -14.6886 -12.9523 -10.2728  -8.9049  -8.1219  -7.5393
    -5.2601  -4.5312  -2.3690   0.7883   0.8414

     occupation numbers 
     1.0000   1.0000   1.0000   1.0000   1.0000   1.0000   1.0000   1.0000
     1.0000   1.0353  -0.0000  -0.0000  -0.0000

          k = 0.0000-0.5354 0.0000 (  6080 PWs)   bands (ev):

   -17.7096 -16.4864 -14.2141 -13.4331 -10.3975  -8.3812  -8.2776  -7.5884
    -5.9696  -4.5209  -1.8659   0.2121   0.8731

     occupation numbers 
     1.0000   1.0000   1.0000   1.0000   1.0000   1.0000   1.0000   1.0000
     1.0000   1.0347  -0.0000  -0.0000  -0.0000

          k = 0.0773 0.1338 0.0000 (  6057 PWs)   bands (ev):

   -20.1733 -16.3896 -13.3420 -11.4287 -11.2531  -7.9374  -6.7688  -5.6922
    -4.6148  -4.5420  -1.1707  -1.1485  -0.2145

     occupation numbers 
     1.0000   1.0000   1.0000   1.0000   1.0000   1.0000   1.0000   1.0000
     1.0275   1.0354  -0.0000  -0.0000  -0.0000

          k = 0.0773 0.2231 0.0000 (  6086 PWs)   bands (ev):

   -19.7948 -16.0568 -13.8220 -11.6652 -10.7990  -9.0389  -6.7807  -6.6529
    -4.4683  -4.1127  -1.8037  -0.7840   0.3207

     occupation numbers 
     1.0000   1.0000   1.0000   1.0000   1.0000   1.0000   1.0000   1.0000
     1.0210   0.2278  -0.0000  -0.0000  -0.0000

          k = 0.0773 0.3123 0.0000 (  6072 PWs)   bands (ev):

   -19.2410 -15.5725 -14.5344 -12.0544 -10.2301  -9.8904  -7.5804  -6.8152
    -4.2993  -3.4864  -3.1342  -0.2862   1.1215

     occupation numbers 
     1.0000   1.0000   1.0000   1.0000   1.0000   1.0000   1.0000   1.0000
     0.7721  -0.0006  -0.0000  -0.0000  -0.0000

          k = 0.0773 0.4015 0.0000 (  6087 PWs)   bands (ev):

   -18.5413 -15.4175 -14.9646 -12.6100 -10.6633  -9.2527  -8.2573  -6.8627
    -4.5838  -4.1564  -2.7052   0.1512   1.4265

     occupation numbers 
     1.0000   1.0000   1.0000   1.0000   1.0000   1.0000   1.0000   1.0000
     1.0322   0.3486  -0.0000  -0.0000  -0.0000

          k = 0.0773 0.4908 0.0000 (  6082 PWs)   bands (ev):

   -17.8159 -16.2685 -14.3267 -13.2376 -10.9580  -8.5977  -8.4513  -6.9038
    -5.7251  -4.0759  -1.9488   0.3551   0.4452

     occupation numbers 
     1.0000   1.0000   1.0000   1.0000   1.0000   1.0000   1.0000   1.0000
     1.0000   0.1422  -0.0000  -0.0000  -0.0000

          k = 0.1546 0.2677 0.0000 (  6092 PWs)   bands (ev):

   -19.3314 -15.6515 -14.3515 -11.9504 -10.3975 -10.0466  -7.6514  -6.3513
    -4.0553  -3.5893  -2.6593  -0.9925   0.9894

     occupation numbers 
     1.0000   1.0000   1.0000   1.0000   1.0000   1.0000   1.0000   1.0000
     0.1018  -0.0031  -0.0000  -0.0000  -0.0000

          k = 0.1546 0.3569 0.0000 (  6085 PWs)   bands (ev):

   -18.7068 -15.1095 -15.0425 -12.3584 -11.2190  -9.4384  -8.5571  -5.9798
    -3.8721  -3.5800  -2.8898  -0.9465   1.4093

     occupation numbers 
     1.0000   1.0000   1.0000   1.0000   1.0000   1.0000   1.0000   1.0000
    -0.0355  -0.0027  -0.0000  -0.0000  -0.0000

          k = 0.1546 0.4462 0.0000 (  6072 PWs)   bands (ev):

   -17.9737 -15.8465 -14.4791 -12.8948 -11.8097  -9.1599  -8.5726  -5.9209
    -4.9433  -3.2021  -2.0927  -0.7308   0.9960

     occupation numbers 
     1.0000   1.0000   1.0000   1.0000   1.0000   1.0000   1.0000   1.0000
     1.0004  -0.0000  -0.0000  -0.0000  -0.0000

          k = 0.1546 0.5354 0.0000 (  6080 PWs)   bands (ev):

   -17.4578 -16.3962 -14.0236 -13.3204 -12.0039  -9.3662  -8.0181  -6.2518
    -5.2321  -3.0572  -1.6008  -0.6027   0.3886

     occupation numbers 
     1.0000   1.0000   1.0000   1.0000   1.0000   1.0000   1.0000   1.0000
     1.0000  -0.0000  -0.0000  -0.0000  -0.0000

          k = 0.2318 0.4015 0.0000 (  6070 PWs)   bands (ev):

   -18.0372 -15.6197 -14.5379 -12.7238 -12.1962  -9.4262  -8.6263  -5.5913
    -4.1911  -2.7202  -2.1685  -1.4983   0.3582

     occupation numbers 
     1.0000   1.0000   1.0000   1.0000   1.0000   1.0000   1.0000   1.0000
     0.4538  -0.0000  -0.0000  -0.0000  -0.0000

          k = 0.2318 0.4908 0.0000 (  6038 PWs)   bands (ev):

   -17.3327 -16.2524 -13.9489 -13.1619 -12.7365  -9.9358  -7.7758  -6.2264
    -3.8036  -2.0632  -1.5299  -1.4825  -0.5701

     occupation numbers 
     1.0000   1.0000   1.0000   1.0000   1.0000   1.0000   1.0000   1.0000
    -0.0286  -0.0000  -0.0000  -0.0000  -0.0000

          k = 0.3091 0.5354 0.0000 (  6036 PWs)   bands (ev):

   -16.7293 -16.7293 -13.4876 -13.4876 -13.1032 -10.2541  -6.9565  -6.9565
    -2.2240  -2.2240  -1.7931  -1.2867  -1.2867

     occupation numbers 
     1.0000   1.0000   1.0000   1.0000   1.0000   1.0000   1.0000   1.0000
    -0.0000  -0.0000  -0.0000  -0.0000  -0.0000

     the Fermi energy is    -4.2060 ev

!    total energy              =     -37.36925502 Ry
     estimated scf accuracy    <          5.6E-09 Ry
     smearing contrib. (-TS)   =       0.00018889 Ry
     internal energy E=F+TS    =     -37.36944390 Ry

     The total energy is F=E-TS. E is the sum of the following terms:
     one-electron contribution =    -894.39827423 Ry
     hartree contribution      =     448.96739630 Ry
     xc contribution           =     -18.09601257 Ry
     ewald contribution        =     426.15744660 Ry

     convergence has been achieved in  12 iterations

     negative rho (up, down):  1.661E-04 0.000E+00

     Forces acting on atoms (cartesian axes, Ry/au):

     atom    1 type  1   force =     0.00000000    0.00000000   -0.01718983
     atom    2 type  1   force =    -0.00000000   -0.00000000   -0.01718983
     atom    3 type  1   force =     0.00000000    0.00000000   -0.01718983
     atom    4 type  1   force =    -0.00000000   -0.00000000    0.01718983
     atom    5 type  1   force =     0.00000000    0.00000000    0.01718983
     atom    6 type  1   force =     0.00000000    0.00000000    0.01718983
     The non-local contrib.  to forces
     atom    1 type  1   force =     0.00000000    0.00000000    0.08368448
     atom    2 type  1   force =     0.00000000    0.00000000    0.08368448
     atom    3 type  1   force =    -0.00000000   -0.00000000    0.08368448
     atom    4 type  1   force =     0.00000000    0.00000000   -0.08368448
     atom    5 type  1   force =    -0.00000000   -0.00000000   -0.08368448
     atom    6 type  1   force =     0.00000000    0.00000000   -0.08368448
     The ionic contribution  to forces
     atom    1 type  1   force =     0.00000000    0.00000000  -10.91734538
     atom    2 type  1   force =    -0.00000000   -0.00000000  -10.91734538
     atom    3 type  1   force =     0.00000000   -0.00000000  -10.91734538
     atom    4 type  1   force =     0.00000000    0.00000000   10.91734538
     atom    5 type  1   force =    -0.00000000   -0.00000000   10.91734538
     atom    6 type  1   force =     0.00000000   -0.00000000   10.91734538
     The local contribution  to forces
     atom    1 type  1   force =     0.00000000    0.00000000   10.81808405
     atom    2 type  1   force =     0.00000000    0.00000000   10.81808405
     atom    3 type  1   force =    -0.00000000    0.00000000   10.81808405
     atom    4 type  1   force =     0.00000000   -0.00000000  -10.81808405
     atom    5 type  1   force =     0.00000000   -0.00000000  -10.81808405
     atom    6 type  1   force =    -0.00000000   -0.00000000  -10.81808405
     The core correction contribution to forces
     atom    1 type  1   force =    -0.00000000    0.00000000   -0.00157680
     atom    2 type  1   force =     0.00000000    0.00000000   -0.00157680
     atom    3 type  1   force =    -0.00000000    0.00000000   -0.00157680
     atom    4 type  1   force =    -0.00000000    0.00000000    0.00157680
     atom    5 type  1   force =     0.00000000    0.00000000    0.00157680
     atom    6 type  1   force =    -0.00000000    0.00000000    0.00157680
     The Hubbard contrib.    to forces
     atom    1 type  1   force =     0.00000000    0.00000000    0.00000000
     atom    2 type  1   force =     0.00000000    0.00000000    0.00000000
     atom    3 type  1   force =     0.00000000    0.00000000    0.00000000
     atom    4 type  1   force =     0.00000000    0.00000000    0.00000000
     atom    5 type  1   force =     0.00000000    0.00000000    0.00000000
     atom    6 type  1   force =     0.00000000    0.00000000    0.00000000
     The SCF correction term to forces
     atom    1 type  1   force =     0.00000000   -0.00000000   -0.00003618
     atom    2 type  1   force =    -0.00000000    0.00000000   -0.00003618
     atom    3 type  1   force =    -0.00000000   -0.00000000   -0.00003618
     atom    4 type  1   force =    -0.00000000    0.00000000    0.00003619
     atom    5 type  1   force =    -0.00000000    0.00000000    0.00003619
     atom    6 type  1   force =    -0.00000000    0.00000000    0.00003619

     Total force =     0.042106     Total SCF correction =     0.000089


     Computing stress (Cartesian axis) and pressure


     negative rho (up, down):  1.661E-04 0.000E+00
          total   stress  (Ry/bohr**3)                   (kbar)     P=      120.79
   0.00114853  -0.00000000   0.00000000          168.95       -0.00        0.00
  -0.00000000   0.00114853  -0.00000000           -0.00      168.95       -0.00
   0.00000000  -0.00000000   0.00016620            0.00       -0.00       24.45

     kinetic stress (kbar)   2019.80     -0.00      0.00
                               -0.00   2019.80      0.00
                                0.00      0.00   1996.03

     local   stress (kbar)-114083.52      0.00      0.00
                                0.00-114083.52     -0.00
                                0.00     -0.00 114642.57

     nonloc. stress (kbar)    237.33      0.00      0.00
                                0.00    237.33      0.00
                                0.00      0.00    228.60

     hartree stress (kbar)  55704.51     -0.00     -0.00
                               -0.00  55704.51     -0.00
                               -0.00     -0.00 -55575.81

     exc-cor stress (kbar)    -53.03      0.00      0.00
                                0.00    -53.03      0.00
                                0.00      0.00    -74.72

     corecor stress (kbar)   -508.40      0.00     -0.00
                                0.00   -508.40     -0.00
                               -0.00     -0.00   -484.28

     ewald   stress (kbar)  56852.27     -0.00      0.00
                               -0.00  56852.27      0.00
                                0.00      0.00 -60707.95

     hubbard stress (kbar)      0.00      0.00      0.00
                                0.00      0.00      0.00
                                0.00      0.00      0.00

     DFT-D   stress (kbar)      0.00      0.00      0.00
                                0.00      0.00      0.00
                                0.00      0.00      0.00

     XDM     stress (kbar)      0.00      0.00      0.00
                                0.00      0.00      0.00
                                0.00      0.00      0.00

     dft-nl  stress (kbar)      0.00      0.00      0.00
                                0.00      0.00      0.00
                                0.00      0.00      0.00

     TS-vdW  stress (kbar)      0.00      0.00      0.00
                                0.00      0.00      0.00
                                0.00      0.00      0.00

     MDB     stress (kbar)      0.00      0.00      0.00
                                0.00      0.00      0.00
                                0.00      0.00      0.00

     3D-RISM stress (kbar)      0.00      0.00      0.00
                                0.00      0.00      0.00
                                0.00      0.00      0.00

     Energy error            =      3.5E-01 Ry
     Gradient error          =      1.7E-02 Ry/Bohr
     Cell gradient error     =      1.7E+02 kbar

     number of scf cycles    =   2
     number of bfgs steps    =   1

     enthalpy           old  =     -37.0225299513 Ry
     enthalpy           new  =     -37.3692550182 Ry

     CASE: enthalpy          _new < enthalpy          _old

     new trust radius        =       0.3183858570 bohr
     new conv_thr            =       0.0000000100 Ry

     new unit-cell volume =   1294.94288 a.u.^3 (   191.89074 Ang^3 )
     density =      0.56132 g/cm^3

CELL_PARAMETERS (alat=  5.57469200)
   1.128300249  -0.000000000   0.000000000
  -0.564150124   0.977136678   0.000000000
   0.000000000   0.000000000   6.779661000

ATOMIC_POSITIONS (crystal)
B                0.5000000000       -0.0000000000        0.4482072041
B                0.0000000000        0.5000000000        0.4482072041
B                0.5000000000        0.5000000000        0.4482072041
B                0.5000000000        0.0000000000        0.5517927959
B                0.0000000000        0.5000000000        0.5517927959
B                0.5000000000        0.5000000000        0.5517927959



     Writing config-only to output data dir ./out/bkboro.save/ :
     XML data file
     NEW-OLD atomic charge density approx. for the potential
     New effective cutoffs (rho, wfc):  399.31   49.70

     negative rho (up, down):  1.795E-04 0.000E+00

     total cpu time spent up to now is        8.1 secs

     per-process dynamical memory:    66.1 Mb

     Self-consistent Calculation

     iteration #  1     ecut=    50.00 Ry     beta= 0.30
     Davidson diagonalization with overlap

---- Real-time Memory Report at c_bands before calling an iterative solver
           119 MiB given to the printing process from OS
            64 MiB allocation reported by mallinfo(arena+hblkhd)
          1256 MiB available memory on the node where the printing process lives
------------------
     ethr =  1.00E-06,  avg # of iterations =  8.1

     negative rho (up, down):  3.005E-04 0.000E+00

     total cpu time spent up to now is        8.5 secs

     total energy              =     -37.45427488 Ry
     estimated scf accuracy    <       0.01049193 Ry

     iteration #  2     ecut=    50.00 Ry     beta= 0.30
     Davidson diagonalization with overlap

---- Real-time Memory Report at c_bands before calling an iterative solver
           119 MiB given to the printing process from OS
            64 MiB allocation reported by mallinfo(arena+hblkhd)
          1256 MiB available memory on the node where the printing process lives
------------------
     ethr =  5.83E-05,  avg # of iterations =  1.0

     negative rho (up, down):  2.214E-03 0.000E+00

     total cpu time spent up to now is        8.7 secs

     total energy              =     -37.45202940 Ry
     estimated scf accuracy    <       0.00616619 Ry

     iteration #  3     ecut=    50.00 Ry     beta= 0.30
     Davidson diagonalization with overlap

---- Real-time Memory Report at c_bands before calling an iterative solver
           119 MiB given to the printing process from OS
            64 MiB allocation reported by mallinfo(arena+hblkhd)
          1256 MiB available memory on the node where the printing process lives
------------------
     ethr =  3.43E-05,  avg # of iterations =  2.5

     negative rho (up, down):  1.691E-03 0.000E+00

     total cpu time spent up to now is        8.9 secs

     total energy              =     -37.45299904 Ry
     estimated scf accuracy    <       0.00006356 Ry

     iteration #  4     ecut=    50.00 Ry     beta= 0.30
     Davidson diagonalization with overlap

---- Real-time Memory Report at c_bands before calling an iterative solver
           119 MiB given to the printing process from OS
            64 MiB allocation reported by mallinfo(arena+hblkhd)
          1256 MiB available memory on the node where the printing process lives
------------------
     ethr =  3.53E-07,  avg # of iterations =  3.1

     negative rho (up, down):  1.587E-03 0.000E+00

     total cpu time spent up to now is        9.1 secs

     total energy              =     -37.45301510 Ry
     estimated scf accuracy    <       0.00002923 Ry

     iteration #  5     ecut=    50.00 Ry     beta= 0.30
     Davidson diagonalization with overlap

---- Real-time Memory Report at c_bands before calling an iterative solver
           119 MiB given to the printing process from OS
            64 MiB allocation reported by mallinfo(arena+hblkhd)
          1256 MiB available memory on the node where the printing process lives
------------------
     ethr =  1.62E-07,  avg # of iterations =  1.5

     negative rho (up, down):  1.573E-03 0.000E+00

     total cpu time spent up to now is        9.3 secs

     total energy              =     -37.45301580 Ry
     estimated scf accuracy    <       0.00001189 Ry

     iteration #  6     ecut=    50.00 Ry     beta= 0.30
     Davidson diagonalization with overlap

---- Real-time Memory Report at c_bands before calling an iterative solver
           119 MiB given to the printing process from OS
            64 MiB allocation reported by mallinfo(arena+hblkhd)
          1256 MiB available memory on the node where the printing process lives
------------------
     ethr =  6.61E-08,  avg # of iterations =  1.2

     negative rho (up, down):  1.355E-03 0.000E+00

     total cpu time spent up to now is        9.5 secs

     total energy              =     -37.45301100 Ry
     estimated scf accuracy    <       0.00000895 Ry

     iteration #  7     ecut=    50.00 Ry     beta= 0.30
     Davidson diagonalization with overlap

---- Real-time Memory Report at c_bands before calling an iterative solver
           119 MiB given to the printing process from OS
            64 MiB allocation reported by mallinfo(arena+hblkhd)
          1256 MiB available memory on the node where the printing process lives
------------------
     ethr =  4.97E-08,  avg # of iterations =  2.7

     negative rho (up, down):  1.196E-03 0.000E+00

     total cpu time spent up to now is        9.7 secs

     total energy              =     -37.45300716 Ry
     estimated scf accuracy    <       0.00000296 Ry

     iteration #  8     ecut=    50.00 Ry     beta= 0.30
     Davidson diagonalization with overlap

---- Real-time Memory Report at c_bands before calling an iterative solver
           119 MiB given to the printing process from OS
            64 MiB allocation reported by mallinfo(arena+hblkhd)
          1256 MiB available memory on the node where the printing process lives
------------------
     ethr =  1.65E-08,  avg # of iterations =  2.5

     negative rho (up, down):  6.596E-04 0.000E+00

     total cpu time spent up to now is        9.9 secs

     total energy              =     -37.45299820 Ry
     estimated scf accuracy    <       0.00000215 Ry

     iteration #  9     ecut=    50.00 Ry     beta= 0.30
     Davidson diagonalization with overlap

---- Real-time Memory Report at c_bands before calling an iterative solver
           119 MiB given to the printing process from OS
            64 MiB allocation reported by mallinfo(arena+hblkhd)
          1256 MiB available memory on the node where the printing process lives
------------------
[...]
------------------
     ethr =  8.30E-10,  avg # of iterations =  3.8

     negative rho (up, down):  4.823E-04 0.000E+00

     total cpu time spent up to now is       33.0 secs

     total energy              =     -37.46844600 Ry
     estimated scf accuracy    <       0.00000006 Ry

     iteration # 16     ecut=    50.00 Ry     beta= 0.30
     Davidson diagonalization with overlap

---- Real-time Memory Report at c_bands before calling an iterative solver
           142 MiB given to the printing process from OS
            84 MiB allocation reported by mallinfo(arena+hblkhd)
          1154 MiB available memory on the node where the printing process lives
------------------
     ethr =  3.09E-10,  avg # of iterations =  2.3

     negative rho (up, down):  4.585E-04 0.000E+00

     total cpu time spent up to now is       33.4 secs

     total energy              =     -37.46844607 Ry
     estimated scf accuracy    <       0.00000007 Ry

     iteration # 17     ecut=    50.00 Ry     beta= 0.30
     Davidson diagonalization with overlap

---- Real-time Memory Report at c_bands before calling an iterative solver
           142 MiB given to the printing process from OS
            84 MiB allocation reported by mallinfo(arena+hblkhd)
          1154 MiB available memory on the node where the printing process lives
------------------
     ethr =  3.09E-10,  avg # of iterations =  2.0

     negative rho (up, down):  4.568E-04 0.000E+00

     total cpu time spent up to now is       33.7 secs

     total energy              =     -37.46844608 Ry
     estimated scf accuracy    <          9.7E-10 Ry

     iteration # 18     ecut=    50.00 Ry     beta= 0.30
     Davidson diagonalization with overlap

---- Real-time Memory Report at c_bands before calling an iterative solver
           142 MiB given to the printing process from OS
            84 MiB allocation reported by mallinfo(arena+hblkhd)
          1153 MiB available memory on the node where the printing process lives
------------------
     ethr =  5.39E-12,  avg # of iterations =  2.2

     negative rho (up, down):  4.561E-04 0.000E+00

     total cpu time spent up to now is       34.0 secs

     total energy              =     -37.46844608 Ry
     estimated scf accuracy    <          1.6E-10 Ry

     iteration # 19     ecut=    50.00 Ry     beta= 0.30
     Davidson diagonalization with overlap

---- Real-time Memory Report at c_bands before calling an iterative solver
           142 MiB given to the printing process from OS
            84 MiB allocation reported by mallinfo(arena+hblkhd)
          1153 MiB available memory on the node where the printing process lives
------------------
     ethr =  8.97E-13,  avg # of iterations =  2.3

     negative rho (up, down):  4.586E-04 0.000E+00

     total cpu time spent up to now is       34.3 secs

     End of self-consistent calculation

          k = 0.0000 0.0000 0.0000 (  8263 PWs)   bands (ev):

   -19.1292 -15.3521 -12.0168 -10.3176 -10.0899  -6.4773  -6.4773  -4.3738
    -4.3738  -3.7649  -3.2644  -3.2644   0.1381

     occupation numbers 
     1.0000   1.0000   1.0000   1.0000   1.0000   1.0000   1.0000   1.0223
     1.0223  -0.0352  -0.0001  -0.0001  -0.0000

          k = 0.0000 0.0829 0.0000 (  8233 PWs)   bands (ev):

   -19.0455 -15.2769 -12.1619 -10.2191 -10.1607  -6.9221  -6.6293  -4.6867
    -4.3925  -3.6713  -2.9945  -2.9113   0.2531

     occupation numbers 
     1.0000   1.0000   1.0000   1.0000   1.0000   1.0000   1.0000   1.0052
     1.0291  -0.0228  -0.0000  -0.0000  -0.0000

          k = 0.0000 0.1657 0.0000 (  8211 PWs)   bands (ev):

   -18.7963 -15.0536 -12.5912 -10.3794  -9.9268  -7.7759  -6.9655  -5.4077
    -4.4424  -3.3943  -2.4737  -2.3196   0.1061

     occupation numbers 
     1.0000   1.0000   1.0000   1.0000   1.0000   1.0000   1.0000   1.0000
     1.0355  -0.0007  -0.0000  -0.0000  -0.0000

          k = 0.0000 0.2486 0.0000 (  8169 PWs)   bands (ev):

   -18.3888 -14.6900 -13.2722 -10.7593  -9.4558  -8.5503  -7.3188  -6.1867
    -4.5078  -2.9434  -2.8399  -1.4642   0.6772

     occupation numbers 
     1.0000   1.0000   1.0000   1.0000   1.0000   1.0000   1.0000   1.0000
     1.0291  -0.0000  -0.0000  -0.0000  -0.0000

          k = 0.0000 0.3314 0.0000 (  8168 PWs)   bands (ev):

   -17.8409 -14.2037 -14.1184 -11.2955  -9.1634  -8.7594  -7.6037  -6.8039
    -4.5705  -3.8749  -2.3425  -0.6571   1.8054

     occupation numbers 
     1.0000   1.0000   1.0000   1.0000   1.0000   1.0000   1.0000   1.0000
     1.0187  -0.0036  -0.0000  -0.0000  -0.0000

          k = 0.0000 0.4143 0.0000 (  8194 PWs)   bands (ev):

   -17.2091 -14.9784 -13.6435 -11.9169  -9.4545  -8.0697  -7.7841  -7.1758
    -4.9586  -4.6147  -1.6685  -0.1570   0.9723

     occupation numbers 
     1.0000   1.0000   1.0000   1.0000   1.0000   1.0000   1.0000   1.0000
     1.0000   1.0122  -0.0000  -0.0000  -0.0000

          k =-0.0000-0.4971 0.0000 (  8204 PWs)   bands (ev):

   -16.8016 -15.4705 -13.2712 -12.3171  -9.5551  -7.8456  -7.6490  -7.2972
    -5.5181  -4.6306  -1.2669  -0.0172   0.5150

     occupation numbers 
     1.0000   1.0000   1.0000   1.0000   1.0000   1.0000   1.0000   1.0000
     1.0000   1.0103  -0.0000  -0.0000  -0.0000

          k = 0.0718 0.1243 0.0000 (  8223 PWs)   bands (ev):

   -18.8790 -15.1277 -12.4455 -10.3039 -10.0239  -7.6674  -6.7112  -5.2435
    -4.3707  -3.4863  -2.7205  -2.3987  -0.0086

     occupation numbers 
     1.0000   1.0000   1.0000   1.0000   1.0000   1.0000   1.0000   1.0000
     1.0209  -0.0028  -0.0000  -0.0000  -0.0000

          k = 0.0718 0.2071 0.0000 (  8186 PWs)   bands (ev):

   -18.5503 -14.8340 -12.9834 -10.5943  -9.6447  -8.6100  -6.7909  -6.0616
    -4.3039  -3.1226  -2.5094  -2.0968   0.4471

     occupation numbers 
     1.0000   1.0000   1.0000   1.0000   1.0000   1.0000   1.0000   1.0000
     0.9661  -0.0000  -0.0000  -0.0000  -0.0000

          k = 0.0718 0.2900 0.0000 (  8191 PWs)   bands (ev):

   -18.0709 -14.4078 -13.7230 -11.0361  -9.4533  -9.0205  -6.9014  -6.8246
    -4.2356  -3.3196  -2.5956  -1.4420   1.1146

     occupation numbers 
     1.0000   1.0000   1.0000   1.0000   1.0000   1.0000   1.0000   1.0000
     0.8515  -0.0002  -0.0000  -0.0000  -0.0000

          k = 0.0718 0.3728 0.0000 (  8190 PWs)   bands (ev):

   -17.4704 -14.5664 -13.8771 -11.6061  -9.9369  -8.3550  -7.3681  -7.0061
    -4.4363  -4.1863  -1.9466  -0.7617   1.1096

     occupation numbers 
     1.0000   1.0000   1.0000   1.0000   1.0000   1.0000   1.0000   1.0000
     1.0354   0.7314  -0.0000  -0.0000  -0.0000

          k = 0.0718 0.4557 0.0000 (  8188 PWs)   bands (ev):

   -16.8716 -15.3119 -13.3437 -12.1760 -10.1823  -7.6995  -7.6396  -7.0690
    -5.3495  -4.1620  -1.3360  -0.3807   1.1713

     occupation numbers 
     1.0000   1.0000   1.0000   1.0000   1.0000   1.0000   1.0000   1.0000
     1.0000   0.6627  -0.0000  -0.0000  -0.0000

          k = 0.1435 0.2486 0.0000 (  8173 PWs)   bands (ev):

   -18.1486 -14.4770 -13.5506 -10.9297  -9.6948  -9.1179  -6.9310  -6.3758
    -3.9520  -2.9149  -2.6836  -2.1859   0.9396

     occupation numbers 
     1.0000   1.0000   1.0000   1.0000   1.0000   1.0000   1.0000   1.0000
     0.0914  -0.0000  -0.0000  -0.0000  -0.0000

          k = 0.1435 0.3314 0.0000 (  8193 PWs)   bands (ev):

   -17.6092 -14.2465 -14.0013 -11.3778 -10.4920  -8.5073  -7.6936  -6.0580
    -3.8859  -3.5700  -2.1051  -1.8493   0.4696

     occupation numbers 
     1.0000   1.0000   1.0000   1.0000   1.0000   1.0000   1.0000   1.0000
     0.0055  -0.0085  -0.0000  -0.0000  -0.0000

          k = 0.1435 0.4143 0.0000 (  8190 PWs)   bands (ev):

   -16.9845 -14.9946 -13.4550 -11.9100 -10.9875  -8.1890  -7.7890  -5.9418
    -4.8557  -3.2853  -1.4650  -1.3328   0.0194

     occupation numbers 
     1.0000   1.0000   1.0000   1.0000   1.0000   1.0000   1.0000   1.0000
     1.0004  -0.0001  -0.0000  -0.0000  -0.0000

          k = 0.1435 0.4971 0.0000 (  8210 PWs)   bands (ev):

   -16.5687 -15.4591 -13.0862 -12.2769 -11.1506  -8.3572  -7.3414  -6.0207
    -5.2897  -3.1809  -1.0909  -1.0198  -0.2136

     occupation numbers 
     1.0000   1.0000   1.0000   1.0000   1.0000   1.0000   1.0000   1.0000
     1.0000  -0.0000  -0.0000  -0.0000  -0.0000

          k = 0.2153 0.3728 0.0000 (  8183 PWs)   bands (ev):

   -17.0322 -14.8256 -13.5005 -11.7754 -11.3256  -8.4344  -7.8292  -5.5052
    -4.2903  -2.8037  -2.1209  -1.5396  -0.3857

     occupation numbers 
     1.0000   1.0000   1.0000   1.0000   1.0000   1.0000   1.0000   1.0000
     0.9482  -0.0000  -0.0000  -0.0000  -0.0000

          k = 0.2153 0.4557 0.0000 (  8200 PWs)   bands (ev):

   -16.4316 -15.4154 -12.9891 -12.2093 -11.7723  -8.8534  -7.1295  -5.8629
    -4.1373  -2.2179  -1.9089  -1.2232  -1.0787

     occupation numbers 
     1.0000   1.0000   1.0000   1.0000   1.0000   1.0000   1.0000   1.0000
     0.5889  -0.0000  -0.0000  -0.0000  -0.0000

          k = 0.2870 0.4971 0.0000 (  8181 PWs)   bands (ev):

   -15.8878 -15.8878 -12.5573 -12.5573 -12.0676  -9.1125  -6.4513  -6.4513
    -2.7871  -2.7871  -1.9201  -1.2937  -1.2937

     occupation numbers 
     1.0000   1.0000   1.0000   1.0000   1.0000   1.0000   1.0000   1.0000
    -0.0000  -0.0000  -0.0000  -0.0000  -0.0000

     the Fermi energy is    -4.1085 ev

!    total energy              =     -37.46844608 Ry
     estimated scf accuracy    <          5.1E-11 Ry
     smearing contrib. (-TS)   =      -0.00044933 Ry
     internal energy E=F+TS    =     -37.46799674 Ry

     The total energy is F=E-TS. E is the sum of the following terms:
     one-electron contribution =    -769.67073340 Ry
     hartree contribution      =     386.64557843 Ry
     xc contribution           =     -17.38407111 Ry
     ewald contribution        =     362.94122933 Ry

     convergence has been achieved in  19 iterations

     negative rho (up, down):  4.586E-04 0.000E+00

     Forces acting on atoms (cartesian axes, Ry/au):

     atom    1 type  1   force =    -0.00000000   -0.00000000   -0.00001379
     atom    2 type  1   force =     0.00000000    0.00000000   -0.00001379
     atom    3 type  1   force =     0.00000000   -0.00000000   -0.00001379
     atom    4 type  1   force =     0.00000000    0.00000000    0.00001379
     atom    5 type  1   force =    -0.00000000   -0.00000000    0.00001379
     atom    6 type  1   force =    -0.00000000    0.00000000    0.00001379
     The non-local contrib.  to forces
     atom    1 type  1   force =    -0.00000000   -0.00000000    0.11126344
     atom    2 type  1   force =     0.00000000    0.00000000    0.11126344
     atom    3 type  1   force =     0.00000000    0.00000000    0.11126344
     atom    4 type  1   force =     0.00000000    0.00000000   -0.11126344
     atom    5 type  1   force =    -0.00000000   -0.00000000   -0.11126344
     atom    6 type  1   force =    -0.00000000   -0.00000000   -0.11126344
     The ionic contribution  to forces
     atom    1 type  1   force =     0.00000000    0.00000000   -9.44019304
     atom    2 type  1   force =    -0.00000000   -0.00000000   -9.44019304
     atom    3 type  1   force =     0.00000000   -0.00000000   -9.44019304
     atom    4 type  1   force =     0.00000000    0.00000000    9.44019304
     atom    5 type  1   force =    -0.00000000   -0.00000000    9.44019304
     atom    6 type  1   force =     0.00000000   -0.00000000    9.44019304
     The local contribution  to forces
     atom    1 type  1   force =     0.00000000    0.00000000    9.33126111
     atom    2 type  1   force =     0.00000000    0.00000000    9.33126111
     atom    3 type  1   force =    -0.00000000   -0.00000000    9.33126111
     atom    4 type  1   force =     0.00000000   -0.00000000   -9.33126111
     atom    5 type  1   force =     0.00000000    0.00000000   -9.33126111
     atom    6 type  1   force =    -0.00000000   -0.00000000   -9.33126111
     The core correction contribution to forces
     atom    1 type  1   force =    -0.00000000   -0.00000000   -0.00234474
     atom    2 type  1   force =    -0.00000000    0.00000000   -0.00234474
     atom    3 type  1   force =    -0.00000000    0.00000000   -0.00234474
     atom    4 type  1   force =    -0.00000000   -0.00000000    0.00234474
     atom    5 type  1   force =    -0.00000000    0.00000000    0.00234474
     atom    6 type  1   force =    -0.00000000    0.00000000    0.00234474
     The Hubbard contrib.    to forces
     atom    1 type  1   force =     0.00000000    0.00000000    0.00000000
     atom    2 type  1   force =     0.00000000    0.00000000    0.00000000
     atom    3 type  1   force =     0.00000000    0.00000000    0.00000000
     atom    4 type  1   force =     0.00000000    0.00000000    0.00000000
     atom    5 type  1   force =     0.00000000    0.00000000    0.00000000
     atom    6 type  1   force =     0.00000000    0.00000000    0.00000000
     The SCF correction term to forces
     atom    1 type  1   force =    -0.00000000    0.00000000   -0.00000057
     atom    2 type  1   force =     0.00000000   -0.00000000   -0.00000057
     atom    3 type  1   force =    -0.00000000    0.00000000   -0.00000057
     atom    4 type  1   force =     0.00000000   -0.00000000    0.00000054
     atom    5 type  1   force =    -0.00000000    0.00000000    0.00000054
     atom    6 type  1   force =     0.00000000    0.00000000    0.00000054

     Total force =     0.000034     Total SCF correction =     0.000001


     Computing stress (Cartesian axis) and pressure


     negative rho (up, down):  4.586E-04 0.000E+00
          total   stress  (Ry/bohr**3)                   (kbar)     P=        0.05
   0.00000137  -0.00000000   0.00000000            0.20       -0.00        0.00
  -0.00000000   0.00000137   0.00000000           -0.00        0.20        0.00
   0.00000000   0.00000000  -0.00000174            0.00        0.00       -0.26

     kinetic stress (kbar)   1595.07     -0.00      0.00
                               -0.00   1595.07      0.00
                                0.00      0.00   1578.74

     local   stress (kbar) -84647.87     -0.00     -0.00
                               -0.00 -84647.87      0.00
                               -0.00      0.00  84924.11

     nonloc. stress (kbar)    205.59      0.00      0.00
                                0.00    205.59      0.00
                                0.00      0.00    206.23

     hartree stress (kbar)  41327.36      0.00      0.00
                                0.00  41327.36      0.00
                                0.00      0.00 -41202.16

     exc-cor stress (kbar)    -26.27     -0.00      0.00
                               -0.00    -26.27      0.00
                                0.00      0.00    -43.31

     corecor stress (kbar)   -433.00     -0.00      0.00
                               -0.00   -433.00     -0.00
                                0.00     -0.00   -416.44

     ewald   stress (kbar)  41979.31     -0.00     -0.00
                               -0.00  41979.31      0.00
                               -0.00      0.00 -45047.42

     hubbard stress (kbar)      0.00      0.00      0.00
                                0.00      0.00      0.00
                                0.00      0.00      0.00

     DFT-D   stress (kbar)      0.00      0.00      0.00
                                0.00      0.00      0.00
                                0.00      0.00      0.00

     XDM     stress (kbar)      0.00      0.00      0.00
                                0.00      0.00      0.00
                                0.00      0.00      0.00

     dft-nl  stress (kbar)      0.00      0.00      0.00
                                0.00      0.00      0.00
                                0.00      0.00      0.00

     TS-vdW  stress (kbar)      0.00      0.00      0.00
                                0.00      0.00      0.00
                                0.00      0.00      0.00

     MDB     stress (kbar)      0.00      0.00      0.00
                                0.00      0.00      0.00
                                0.00      0.00      0.00

     3D-RISM stress (kbar)      0.00      0.00      0.00
                                0.00      0.00      0.00
                                0.00      0.00      0.00


     Writing all to output data dir ./out/bkboro.save/ :
     XML data file, charge density, pseudopotentials, collected wavefunctions

     init_run     :      0.69s CPU      0.71s WALL (       2 calls)
     electrons    :     29.51s CPU     30.89s WALL (      11 calls)
     update_pot   :      0.14s CPU      0.15s WALL (       9 calls)
     forces       :      0.68s CPU      0.69s WALL (      11 calls)
     stress       :      2.10s CPU      2.12s WALL (      11 calls)

     Called by init_run:
     wfcinit      :      0.25s CPU      0.25s WALL (       2 calls)
     wfcinit:atom :      0.00s CPU      0.00s WALL (      38 calls)
     wfcinit:wfcr :      0.20s CPU      0.20s WALL (      38 calls)
     potinit      :      0.20s CPU      0.20s WALL (       2 calls)
     hinit0       :      0.18s CPU      0.18s WALL (       2 calls)

     Called by electrons:
     c_bands      :     17.84s CPU     18.72s WALL (     137 calls)
     sum_band     :      5.08s CPU      5.28s WALL (     137 calls)
     v_of_rho     :      2.11s CPU      2.17s WALL (     147 calls)
     v_h          :      0.13s CPU      0.14s WALL (     147 calls)
     v_xc         :      2.26s CPU      2.32s WALL (     169 calls)
     newd         :      1.41s CPU      1.43s WALL (     147 calls)
     mix_rho      :      3.09s CPU      3.30s WALL (     137 calls)

     Called by c_bands:
     init_us_2    :      0.83s CPU      0.86s WALL (    5662 calls)
     cegterg      :     16.54s CPU     17.38s WALL (    2603 calls)

     Called by sum_band:
     sum_band:wei :      0.02s CPU      0.02s WALL (     137 calls)
     sum_band:loo :      3.26s CPU      3.43s WALL (     137 calls)
     sum_band:buf :      0.07s CPU      0.07s WALL (    2603 calls)
     sum_band:ini :      0.37s CPU      0.39s WALL (    2603 calls)
     sum_band:cal :      0.27s CPU      0.29s WALL (    2603 calls)
     sum_band:bec :      0.01s CPU      0.01s WALL (    2603 calls)
     addusdens    :      1.60s CPU      1.62s WALL (     137 calls)
                                        0.00s GPU  (     137 calls)
     addusd:skk   :      0.07s CPU      0.07s WALL (     137 calls)
                                        0.00s GPU  (     137 calls)

     Called by *egterg:
     cdiaghg      :      0.63s CPU      0.65s WALL (    8578 calls)
     cegterg:over :      0.55s CPU      0.58s WALL (    6165 calls)
     cegterg:upda :      0.29s CPU      0.30s WALL (    6165 calls)
     cegterg:last :      0.50s CPU      0.52s WALL (    4793 calls)
     h_psi        :     13.55s CPU     14.27s WALL (    8806 calls)
     s_psi        :      0.58s CPU      0.61s WALL (    8806 calls)
     g_psi        :      0.25s CPU      0.25s WALL (    6165 calls)

     Called by h_psi:
     h_psi:calbec :      0.76s CPU      0.80s WALL (    8806 calls)
     vloc_psi     :     12.11s CPU     12.74s WALL (    8806 calls)
                                        0.00s GPU  (    8806 calls)
     add_vuspsi   :      0.62s CPU      0.65s WALL (    8806 calls)

     General routines
     calbec       :      1.40s CPU      1.47s WALL (   14962 calls)
     fft          :      1.30s CPU      1.36s WALL (    2174 calls)
     ffts         :      1.59s CPU      1.69s WALL (   14577 calls)
     fftw         :     13.17s CPU     13.85s WALL (  199613 calls)
     interpolate  :      0.25s CPU      0.26s WALL (     147 calls)

     Parallel routines

     PWSCF        :     33.26s CPU     34.71s WALL


   This run was terminated on:   6:40:13  20Jun2026            

=------------------------------------------------------------------------------=
   JOB DONE.
=------------------------------------------------------------------------------=
