
     Program PHONON v.6.7MaX starts on  1Jun2026 at 13: 3:57 

     This program is part of the open-source Quantum ESPRESSO suite
     for quantum simulation of materials; please cite
         "P. Giannozzi et al., J. Phys.:Condens. Matter 21 395502 (2009);
         "P. Giannozzi et al., J. Phys.:Condens. Matter 29 465901 (2017);
          URL http://www.quantum-espresso.org", 
     in publications or presentations arising from this work. More details at
     http://www.quantum-espresso.org/quote

     Parallel version (MPI), running on     9 processors

     MPI processes distributed on     1 nodes
     R & G space division:  proc/nbgrp/npool/nimage =       9
     Reading input from ph.in

     Reading xml data from directory:

     ./out/lah10.save/
     file La.pbe-spfn-rrkjus_psl.1.0.0.UPF: wavefunction(s)  4F renormalized

     IMPORTANT: XC functional enforced from input :
     Exchange-correlation= PBE
                           (   1   4   3   4   0   0   0)
     Any further DFT definition will be discarded
     Please, verify this is what you really want


     Parallelization info
     --------------------
     sticks:   dense  smooth     PW     G-vecs:    dense   smooth      PW
     Min         255     102     32                 8110     2054     364
     Max         256     103     33                 8113     2057     366
     Sum        2299     925    295                73001    18499    3287

     Reading collected, re-writing distributed wavefunctions

     Saving dvscf to file. Distribute only q points, not irreducible represetations.
        5 /   8 q-points for this run, from  4 to  8:
       N       xq(1)         xq(2)         xq(3) 
       1   0.000000000   0.000000000   0.000000000
       2   0.353552172  -0.353550134   0.353543026
       3  -0.353544486  -0.353548961  -0.353547793
       4   0.000007686  -0.707099095  -0.000004767
       5   0.353550420   0.353543026  -0.353550134
       6   0.707102592  -0.000007108  -0.000007108
       7   0.000005935  -0.000005935  -0.707097927
       8   0.353558107  -0.353556069  -0.353554901


     Calculation of q =    0.0000077  -0.7070991  -0.0000048

     Bands found: reading from ./out/_ph0/lah10.q_4/

     Reading xml data from directory:

     ./out/_ph0/lah10.q_4/lah10.save/
PARSE_ERR                  
81 runParser

Program aborted. Backtrace:
#0  0x72f878db4960 in ???
#1  0x72f878db541d in ???
#2  0x72f87901868c in ???
#3  0x576cc1407a2e in ???
#4  0x576cc136d170 in ???
#5  0x576cc130f429 in ???
#6  0x576cc130f0e3 in ???
#7  0x576cc111f8af in ???
#8  0x576cc0f70994 in ???
#9  0x576cc0f77aa5 in ???
#10  0x576cc0f77cf3 in ???
#11  0x576cc0db9b9d in ???
#12  0x576cc0d4e9ba in ???
#13  0x576cc0d48191 in ???
#14  0x576cc0d47ffe in ???
#15  0x72f878a85d8f in ???
#16  0x72f878a85e3f in ???
#17  0x576cc0d4802d in ???
#18  0xffffffffffffffff in ???
--------------------------------------------------------------------------
Primary job  terminated normally, but 1 process returned
a non-zero exit code. Per user-direction, the job has been aborted.
--------------------------------------------------------------------------
--------------------------------------------------------------------------
mpirun noticed that process rank 0 with PID 0 on node 6c9f1b835614 exited on signal 6 (Aborted).
--------------------------------------------------------------------------
