
     Program PWSCF v.7.5 starts on 14Jun2026 at 10:49:30 

     This program is part of the open-source Quantum ESPRESSO suite
     for quantum simulation of materials; please cite
         "P. Giannozzi et al., J. Phys.:Condens. Matter 21 395502 (2009);
         "P. Giannozzi et al., J. Phys.:Condens. Matter 29 465901 (2017);
         "P. Giannozzi et al., J. Chem. Phys. 152 154105 (2020);
          URL http://www.quantum-espresso.org", 
     in publications or presentations arising from this work. More details at
     http://www.quantum-espresso.org/quote

     Parallel version (MPI & OpenMP), running on       6 processor cores
     Number of MPI processes:                 6
     Threads/MPI process:                     1

     MPI processes distributed on     1 nodes
     8872 MiB available memory on the printing compute node when the environment starts

     Reading input from scf.in

     Current dimensions of program PWSCF are:
     Max number of different atomic species (ntypx) = 10
     Max number of k-points (npk) =  40000
     Max angular momentum in pseudopotentials (lmaxx) =  4
     file Co.pbe-spn-rrkjus_psl.0.3.1.UPF: wavefunction(s)  3P renormalized
     file Sn.pbe-dn-rrkjus_psl.1.0.0.UPF: wavefunction(s)  5S 4D renormalized

     R & G space division:  proc/nbgrp/npool/nimage =       6
     Subspace diagonalization in iterative solution of the eigenvalue problem:
     a serial algorithm will be used


     Parallelization info
     --------------------
     sticks:   dense  smooth     PW     G-vecs:    dense   smooth      PW
     Min         594     298     85                23157     8190    1261
     Max         596     299     86                23160     8193    1264
     Sum        3571    1789    511               138953    49145    7577

     Using Slab Decomposition



     bravais-lattice index     =            4
     lattice parameter (alat)  =       9.9760  a.u.
     unit-cell volume          =     693.6907 (a.u.)^3
     number of atoms/cell      =            6
     number of atomic types    =            2
     number of electrons       =        93.00
     number of Kohn-Sham states=           56
     kinetic-energy cutoff     =      65.0000  Ry
     charge density cutoff     =     520.0000  Ry
     scf convergence threshold =      1.0E-08
     mixing beta               =       0.4000
     number of iterations used =            8  plain     mixing
     Exchange-correlation= PBE
                           (   1   4   3   4   0   0   0)

     celldm(1)=   9.976000  celldm(2)=   0.000000  celldm(3)=   0.806800
     celldm(4)=   0.000000  celldm(5)=   0.000000  celldm(6)=   0.000000

     crystal axes: (cart. coord. in units of alat)
               a(1) = (   1.000000   0.000000   0.000000 )  
               a(2) = (  -0.500000   0.866025   0.000000 )  
               a(3) = (   0.000000   0.000000   0.806800 )  

     reciprocal axes: (cart. coord. in units 2 pi/alat)
               b(1) = (  1.000000  0.577350 -0.000000 )  
               b(2) = (  0.000000  1.154701  0.000000 )  
               b(3) = (  0.000000 -0.000000  1.239465 )  


     PseudoPot. # 1 for Co read from file:
     ./pseudo/Co.pbe-spn-rrkjus_psl.0.3.1.UPF
     MD5 check sum: f06f3866756ce9acbc375cb07d997156
     Pseudo is Ultrasoft + core correction, Zval = 17.0
     Generated using &quot;atomic&quot; code by A. Dal Corso  v.6.2.2
     Using radial grid of 1193 points,  6 beta functions with: 
                l(1) =   0
                l(2) =   0
                l(3) =   1
                l(4) =   1
                l(5) =   2
                l(6) =   2
     Q(r) pseudized with 0 coefficients 


     PseudoPot. # 2 for Sn read from file:
     ./pseudo/Sn.pbe-dn-rrkjus_psl.1.0.0.UPF
     MD5 check sum: 72e22d5a9e1ec4fde6a02e1f963898e9
     Pseudo is Ultrasoft + core correction, Zval = 14.0
     Generated using &quot;atomic&quot; code by A. Dal Corso  v.6.3
     Using radial grid of 1243 points,  6 beta functions with: 
                l(1) =   0
                l(2) =   0
                l(3) =   1
                l(4) =   1
                l(5) =   2
                l(6) =   2
     Q(r) pseudized with 0 coefficients 


     atomic species   valence    mass     pseudopotential
     Co               17.00    58.93300     Co( 1.00)
     Sn               14.00   118.71000     Sn( 1.00)

     Starting magnetic structure 
     atomic species   magnetization
     Co              0.300
     Sn              0.000

     24 Sym. Ops., with inversion, found



   Cartesian axes

     site n.     atom                  positions (alat units)
         1        Co     tau(   1) = (   0.5000000   0.0000000   0.0000000  )
         2        Co     tau(   2) = (  -0.2500000   0.4330127   0.0000000  )
         3        Co     tau(   3) = (   0.2500000   0.4330127   0.0000000  )
         4        Sn     tau(   4) = (   0.0000000   0.0000000   0.0000000  )
         5        Sn     tau(   5) = (  -0.0000005   0.5773506   0.4034000  )
         6        Sn     tau(   6) = (   0.5000005   0.2886748   0.4034000  )

     number of k points=    28  Methfessel-Paxton smearing, width (Ry)=  0.0300
                       cart. coord. in units 2pi/alat
        k(    1) = (   0.0000000   0.0000000   0.0000000), wk =   0.0046296
        k(    2) = (   0.0000000   0.0000000   0.2065774), wk =   0.0092593
        k(    3) = (   0.0000000   0.0000000   0.4131549), wk =   0.0092593
        k(    4) = (   0.0000000   0.0000000  -0.6197323), wk =   0.0046296
        k(    5) = (   0.0000000   0.1924501   0.0000000), wk =   0.0277778
        k(    6) = (   0.0000000   0.1924501   0.2065774), wk =   0.0555556
        k(    7) = (   0.0000000   0.1924501   0.4131549), wk =   0.0555556
        k(    8) = (   0.0000000   0.1924501  -0.6197323), wk =   0.0277778
        k(    9) = (   0.0000000   0.3849002   0.0000000), wk =   0.0277778
        k(   10) = (   0.0000000   0.3849002   0.2065774), wk =   0.0555556
        k(   11) = (   0.0000000   0.3849002   0.4131549), wk =   0.0555556
        k(   12) = (   0.0000000   0.3849002  -0.6197323), wk =   0.0277778
        k(   13) = (   0.0000000  -0.5773503   0.0000000), wk =   0.0138889
        k(   14) = (   0.0000000  -0.5773503   0.2065774), wk =   0.0277778
        k(   15) = (   0.0000000  -0.5773503   0.4131549), wk =   0.0277778
        k(   16) = (   0.0000000  -0.5773503  -0.6197323), wk =   0.0138889
        k(   17) = (   0.1666667   0.2886751   0.0000000), wk =   0.0277778
        k(   18) = (   0.1666667   0.2886751   0.2065774), wk =   0.0555556
        k(   19) = (   0.1666667   0.2886751   0.4131549), wk =   0.0555556
        k(   20) = (   0.1666667   0.2886751  -0.6197323), wk =   0.0277778
        k(   21) = (   0.1666667   0.4811252   0.0000000), wk =   0.0555556
        k(   22) = (   0.1666667   0.4811252   0.2065774), wk =   0.1111111
        k(   23) = (   0.1666667   0.4811252   0.4131549), wk =   0.1111111
        k(   24) = (   0.1666667   0.4811252  -0.6197323), wk =   0.0555556
        k(   25) = (   0.3333333   0.5773503   0.0000000), wk =   0.0092593
        k(   26) = (   0.3333333   0.5773503   0.2065774), wk =   0.0185185
        k(   27) = (   0.3333333   0.5773503   0.4131549), wk =   0.0185185
        k(   28) = (   0.3333333   0.5773503  -0.6197323), wk =   0.0092593

     Dense  grid:   138953 G-vectors     FFT dimensions: (  75,  75,  60)

     Smooth grid:    49145 G-vectors     FFT dimensions: (  54,  54,  45)

     Estimated max dynamical RAM per process >     150.03 MB

     Estimated total dynamical RAM >     900.19 MB

     Check: negative core charge=   -0.000008
     Generating pointlists ...
     new r_m :   0.2046 (alat units)  2.0413 (a.u.) for type    1
     new r_m :   0.2046 (alat units)  2.0413 (a.u.) for type    2

     Initial potential from superposition of free atoms

     starting charge      92.9950, renormalised to      93.0000
     Starting wfcs are   57 randomized atomic wfcs

     total cpu time spent up to now is        1.7 secs

     per-process dynamical memory:    85.7 Mb

     Self-consistent Calculation

     iteration #  1     ecut=    65.00 Ry     beta= 0.40
     Davidson diagonalization with overlap
     ethr =  1.00E-02,  avg # of iterations =  3.9

     total cpu time spent up to now is        5.6 secs

     total energy              =   -1363.00316819 Ry
     estimated scf accuracy    <       2.15563187 Ry

     total magnetization       =     4.66 Bohr mag/cell
     absolute magnetization    =     5.49 Bohr mag/cell

     iteration #  2     ecut=    65.00 Ry     beta= 0.40
     Davidson diagonalization with overlap
     ethr =  2.32E-03,  avg # of iterations =  4.3

     total cpu time spent up to now is        9.4 secs

     total energy              =   -1362.99064286 Ry
     estimated scf accuracy    <       3.93757121 Ry

     total magnetization       =     7.64 Bohr mag/cell
     absolute magnetization    =     8.47 Bohr mag/cell

     iteration #  3     ecut=    65.00 Ry     beta= 0.40
     Davidson diagonalization with overlap
     ethr =  2.32E-03,  avg # of iterations =  2.5

     total cpu time spent up to now is       12.7 secs

     total energy              =   -1363.70069821 Ry
     estimated scf accuracy    <       0.51102025 Ry

     total magnetization       =     4.36 Bohr mag/cell
     absolute magnetization    =     5.43 Bohr mag/cell

     iteration #  4     ecut=    65.00 Ry     beta= 0.40
     Davidson diagonalization with overlap
     ethr =  5.49E-04,  avg # of iterations =  3.8

     total cpu time spent up to now is       16.5 secs

     total energy              =   -1363.78576046 Ry
     estimated scf accuracy    <       0.44642058 Ry

     total magnetization       =     2.54 Bohr mag/cell
     absolute magnetization    =     3.79 Bohr mag/cell

     iteration #  5     ecut=    65.00 Ry     beta= 0.40
     Davidson diagonalization with overlap
     ethr =  4.80E-04,  avg # of iterations =  1.1

     total cpu time spent up to now is       19.5 secs

     total energy              =   -1363.75770464 Ry
     estimated scf accuracy    <       0.21537856 Ry

     total magnetization       =     2.75 Bohr mag/cell
     absolute magnetization    =     3.90 Bohr mag/cell

     iteration #  6     ecut=    65.00 Ry     beta= 0.40
     Davidson diagonalization with overlap
     ethr =  2.32E-04,  avg # of iterations =  2.4

     total cpu time spent up to now is       22.9 secs

     total energy              =   -1363.78309153 Ry
     estimated scf accuracy    <       0.01581508 Ry

     total magnetization       =     2.36 Bohr mag/cell
     absolute magnetization    =     3.34 Bohr mag/cell

     iteration #  7     ecut=    65.00 Ry     beta= 0.40
     Davidson diagonalization with overlap
     ethr =  1.70E-05,  avg # of iterations =  7.5

     total cpu time spent up to now is       28.1 secs

     total energy              =   -1363.78849612 Ry
     estimated scf accuracy    <       0.02026617 Ry

     total magnetization       =     2.03 Bohr mag/cell
     absolute magnetization    =     2.87 Bohr mag/cell

     iteration #  8     ecut=    65.00 Ry     beta= 0.40
     Davidson diagonalization with overlap
     ethr =  1.70E-05,  avg # of iterations =  3.0

     total cpu time spent up to now is       31.9 secs

     total energy              =   -1363.78663703 Ry
     estimated scf accuracy    <       0.06984880 Ry

     total magnetization       =     2.74 Bohr mag/cell
     absolute magnetization    =     3.66 Bohr mag/cell

     iteration #  9     ecut=    65.00 Ry     beta= 0.40
     Davidson diagonalization with overlap
     ethr =  1.70E-05,  avg # of iterations =  3.1

     total cpu time spent up to now is       35.7 secs

     total energy              =   -1363.80324021 Ry
     estimated scf accuracy    <       0.03220617 Ry

     total magnetization       =     1.44 Bohr mag/cell
     absolute magnetization    =     2.17 Bohr mag/cell

     iteration # 10     ecut=    65.00 Ry     beta= 0.40
     Davidson diagonalization with overlap
     ethr =  1.70E-05,  avg # of iterations =  1.1

     total cpu time spent up to now is       38.7 secs

     total energy              =   -1363.77708038 Ry
     estimated scf accuracy    <       0.02022961 Ry

     total magnetization       =     1.32 Bohr mag/cell
     absolute magnetization    =     2.00 Bohr mag/cell

     iteration # 11     ecut=    65.00 Ry     beta= 0.40
     Davidson diagonalization with overlap
     ethr =  1.70E-05,  avg # of iterations =  4.7

     total cpu time spent up to now is       43.4 secs

     total energy              =   -1363.80752016 Ry
     estimated scf accuracy    <       0.00705521 Ry

     total magnetization       =    -0.07 Bohr mag/cell
     absolute magnetization    =     0.11 Bohr mag/cell

     iteration # 12     ecut=    65.00 Ry     beta= 0.40
     Davidson diagonalization with overlap
     ethr =  7.59E-06,  avg # of iterations =  1.7

     total cpu time spent up to now is       46.6 secs

     total energy              =   -1363.80751917 Ry
     estimated scf accuracy    <       0.00601491 Ry

     total magnetization       =     0.00 Bohr mag/cell
     absolute magnetization    =     0.12 Bohr mag/cell

     iteration # 13     ecut=    65.00 Ry     beta= 0.40
     Davidson diagonalization with overlap
     ethr =  6.47E-06,  avg # of iterations =  1.3

     total cpu time spent up to now is       49.7 secs

     total energy              =   -1363.80730107 Ry
     estimated scf accuracy    <       0.00442789 Ry

     total magnetization       =    -0.04 Bohr mag/cell
     absolute magnetization    =     0.10 Bohr mag/cell

     iteration # 14     ecut=    65.00 Ry     beta= 0.40
     Davidson diagonalization with overlap
     c_bands:  1 eigenvalues not converged
     ethr =  4.76E-06,  avg # of iterations =  1.7

     total cpu time spent up to now is       52.8 secs

     total energy              =   -1363.80551878 Ry
     estimated scf accuracy    <       0.00180663 Ry

     total magnetization       =    -0.08 Bohr mag/cell
     absolute magnetization    =     0.10 Bohr mag/cell

     iteration # 15     ecut=    65.00 Ry     beta= 0.40
     Davidson diagonalization with overlap
     c_bands:  1 eigenvalues not converged
     ethr =  1.94E-06,  avg # of iterations =  3.8

     total cpu time spent up to now is       56.9 secs

     total energy              =   -1363.80755969 Ry
     estimated scf accuracy    <       0.00303423 Ry

     total magnetization       =     0.30 Bohr mag/cell
     absolute magnetization    =     0.38 Bohr mag/cell

     iteration # 16     ecut=    65.00 Ry     beta= 0.40
     Davidson diagonalization with overlap
     ethr =  1.94E-06,  avg # of iterations =  1.3

     total cpu time spent up to now is       59.9 secs

     total energy              =   -1363.80755209 Ry
     estimated scf accuracy    <       0.00092707 Ry

     total magnetization       =     0.26 Bohr mag/cell
     absolute magnetization    =     0.33 Bohr mag/cell

     iteration # 17     ecut=    65.00 Ry     beta= 0.40
     Davidson diagonalization with overlap
     ethr =  9.97E-07,  avg # of iterations =  1.4

     total cpu time spent up to now is       63.0 secs

     total energy              =   -1363.80758529 Ry
     estimated scf accuracy    <       0.00015377 Ry

     total magnetization       =     0.28 Bohr mag/cell
     absolute magnetization    =     0.35 Bohr mag/cell

     iteration # 18     ecut=    65.00 Ry     beta= 0.40
     Davidson diagonalization with overlap
     ethr =  1.65E-07,  avg # of iterations =  5.8

     total cpu time spent up to now is       66.8 secs

     total energy              =   -1363.80761752 Ry
     estimated scf accuracy    <       0.00001062 Ry

     total magnetization       =     0.29 Bohr mag/cell
     absolute magnetization    =     0.37 Bohr mag/cell

     iteration # 19     ecut=    65.00 Ry     beta= 0.40
     Davidson diagonalization with overlap
     ethr =  1.14E-08,  avg # of iterations =  8.9

     total cpu time spent up to now is       72.1 secs

     total energy              =   -1363.80763981 Ry
     estimated scf accuracy    <       0.00000586 Ry

     total magnetization       =     0.33 Bohr mag/cell
     absolute magnetization    =     0.40 Bohr mag/cell

     iteration # 20     ecut=    65.00 Ry     beta= 0.40
     Davidson diagonalization with overlap
     ethr =  6.31E-09,  avg # of iterations =  3.8

     total cpu time spent up to now is       76.2 secs

     total energy              =   -1363.80763318 Ry
     estimated scf accuracy    <       0.00001142 Ry

     total magnetization       =     0.34 Bohr mag/cell
     absolute magnetization    =     0.41 Bohr mag/cell

     iteration # 21     ecut=    65.00 Ry     beta= 0.40
     Davidson diagonalization with overlap
     ethr =  6.31E-09,  avg # of iterations =  4.3

     total cpu time spent up to now is       80.8 secs

     total energy              =   -1363.80765362 Ry
     estimated scf accuracy    <       0.00000299 Ry

     total magnetization       =     0.39 Bohr mag/cell
     absolute magnetization    =     0.46 Bohr mag/cell

     iteration # 22     ecut=    65.00 Ry     beta= 0.40
     Davidson diagonalization with overlap
     ethr =  3.22E-09,  avg # of iterations =  4.3

     total cpu time spent up to now is       85.4 secs

     total energy              =   -1363.80765717 Ry
     estimated scf accuracy    <       0.00000056 Ry

     total magnetization       =     0.40 Bohr mag/cell
     absolute magnetization    =     0.49 Bohr mag/cell

     iteration # 23     ecut=    65.00 Ry     beta= 0.40
     Davidson diagonalization with overlap
     ethr =  6.06E-10,  avg # of iterations =  5.9

     total cpu time spent up to now is       91.0 secs

     total energy              =   -1363.80766034 Ry
     estimated scf accuracy    <       0.00000012 Ry

     total magnetization       =     0.42 Bohr mag/cell
     absolute magnetization    =     0.51 Bohr mag/cell

     iteration # 24     ecut=    65.00 Ry     beta= 0.40
     Davidson diagonalization with overlap
     ethr =  1.30E-10,  avg # of iterations =  7.0

     total cpu time spent up to now is       96.6 secs

     total energy              =   -1363.80766096 Ry
     estimated scf accuracy    <       0.00000001 Ry

     total magnetization       =     0.43 Bohr mag/cell
     absolute magnetization    =     0.52 Bohr mag/cell

     iteration # 25     ecut=    65.00 Ry     beta= 0.40
     Davidson diagonalization with overlap
     ethr =  1.32E-11,  avg # of iterations =  7.8

     Magnetic moment per site  (integrated on atomic sphere of radius R)
     atom   1 (R=0.205)  charge= 15.9657  magn=  0.1568
     atom   2 (R=0.205)  charge= 15.9657  magn=  0.1568
     atom   3 (R=0.205)  charge= 15.9657  magn=  0.1568
     atom   4 (R=0.205)  charge= 11.2449  magn= -0.0074
     atom   5 (R=0.205)  charge= 11.2984  magn= -0.0039
     atom   6 (R=0.205)  charge= 11.2984  magn= -0.0039

     total cpu time spent up to now is      102.0 secs

     End of self-consistent calculation

 ------ SPIN UP ------------


          k = 0.0000 0.0000 0.0000 (  6219 PWs)   bands (ev):

   -79.8130 -79.8002 -79.8001 -43.1863 -43.1133 -43.1133 -43.0738 -43.0604
   -43.0602 -43.0486 -43.0486 -43.0399  -6.8274  -6.7243  -6.7243  -6.6886
    -6.6886  -6.6052  -6.5896  -6.5896  -6.5806  -6.5806  -6.5698  -6.5698
    -6.5012  -6.5012  -6.4506   3.3974   7.9312   9.5211  10.6923  10.6924
    11.3405  11.6678  12.0843  12.1126  12.1127  12.6682  12.6682  13.0743
    13.0744  14.1156  14.1157  14.1803  14.2477  14.2478  15.1156  15.1984
    15.9760  15.9761  17.4840  18.2206  19.7303  19.7304  20.3827  21.3355

          k = 0.0000 0.0000 0.2066 (  6153 PWs)   bands (ev):

   -79.8130 -79.8002 -79.8001 -43.1859 -43.1131 -43.1131 -43.0732 -43.0601
   -43.0600 -43.0483 -43.0483 -43.0398  -6.8230  -6.7265  -6.7265  -6.6873
    -6.6873  -6.6124  -6.6124  -6.5990  -6.5669  -6.5669  -6.5623  -6.5623
    -6.5006  -6.5006  -6.4484   3.6315   7.6993   9.3804  10.7191  10.9477
    10.9478  11.6776  12.1608  12.1609  12.4959  12.6681  12.6681  13.1119
    13.1120  14.1176  14.1177  14.1691  14.2275  14.2276  15.1157  15.2002
    15.6123  15.6124  17.3942  18.4585  18.7102  19.1010  19.1011  19.9844

          k = 0.0000 0.0000 0.4132 (  6080 PWs)   bands (ev):

   -79.8130 -79.8002 -79.8001 -43.1853 -43.1126 -43.1126 -43.0738 -43.0594
   -43.0593 -43.0483 -43.0483 -43.0392  -6.8152  -6.7310  -6.7310  -6.6848
    -6.6848  -6.6349  -6.6349  -6.5864  -6.5608  -6.5608  -6.5486  -6.5486
    -6.5004  -6.5004  -6.4450   4.3112   6.7930   9.1688  10.0903  11.6584
    11.6585  12.2422  12.2423  12.4129  12.6623  12.6636  12.6636  13.2295
    13.2296  14.1128  14.1129  14.1473  14.1887  14.1888  14.6028  14.6029
    14.9110  15.1164  16.4279  16.6421  18.1189  18.1190  19.0570  19.0571

          k = 0.0000 0.0000-0.6197 (  6080 PWs)   bands (ev):

   -79.8130 -79.8002 -79.8001 -43.1853 -43.1126 -43.1126 -43.0740 -43.0595
   -43.0594 -43.0482 -43.0482 -43.0391  -6.8112  -6.7336  -6.7336  -6.6837
    -6.6837  -6.6441  -6.6441  -6.5802  -6.5574  -6.5574  -6.5441  -6.5441
    -6.5010  -6.5010  -6.4433   5.1202   5.7912   9.0830  10.0081  12.2735
    12.2736  12.3661  12.3662  12.6169  12.6170  12.7201  12.9033  13.3159
    13.3160  13.7204  13.7206  14.1360  14.1514  14.1515  14.1705  14.1706
    14.6117  15.1164  15.8008  16.1714  17.6887  17.6889  18.8071  18.8071

          k = 0.0000 0.1925 0.0000 (  6154 PWs)   bands (ev):

   -79.8122 -79.8010 -79.8001 -43.1796 -43.1129 -43.1086 -43.0727 -43.0608
   -43.0600 -43.0550 -43.0507 -43.0417  -6.8250  -6.7261  -6.7238  -6.7081
    -6.7010  -6.6195  -6.5877  -6.5823  -6.5819  -6.5814  -6.5433  -6.5375
    -6.5081  -6.5005  -6.4531   3.6033   7.7518   8.5331  10.3017  11.1301
    11.3909  11.7691  12.0886  12.4418  12.4528  12.6704  12.7243  12.9760
    13.1390  14.1072  14.1098  14.2072  14.2372  14.4191  15.1360  15.5449
    16.1216  16.3468  17.7281  18.0894  18.9602  19.5860  19.6695  20.0677

          k = 0.0000 0.1925 0.2066 (  6142 PWs)   bands (ev):

   -79.8122 -79.8010 -79.8001 -43.1794 -43.1129 -43.1086 -43.0726 -43.0607
   -43.0600 -43.0550 -43.0507 -43.0416  -6.8213  -6.7313  -6.7292  -6.7027
    -6.6959  -6.6151  -6.6078  -6.6033  -6.5690  -6.5661  -6.5410  -6.5344
    -6.5068  -6.4989  -6.4509   3.8358   7.6308   8.5668  10.5438  10.5967
    11.1413  11.8044  12.4731  12.5137  12.5438  12.6333  12.6719  12.9760
    13.1491  14.0884  14.1373  14.2051  14.2504  14.2746  15.1517  15.5824
    15.7437  15.9422  17.1352  17.6936  18.8470  18.9163  19.4373  20.6213

          k = 0.0000 0.1925 0.4132 (  6128 PWs)   bands (ev):

   -79.8122 -79.8010 -79.8001 -43.1792 -43.1129 -43.1085 -43.0729 -43.0606
   -43.0596 -43.0550 -43.0507 -43.0417  -6.8138  -6.7378  -6.7365  -6.6955
    -6.6894  -6.6297  -6.6238  -6.6054  -6.5588  -6.5572  -6.5394  -6.5292
    -6.5038  -6.4958  -6.4469   4.5077   6.9144   8.6477   9.9405  11.2050
    11.2926  12.0800  12.4128  12.4879  12.7194  12.7215  12.8601  12.9962
    13.1758  14.0209  14.1111  14.1744  14.2191  14.3062  14.5469  14.6720
    15.2226  15.2481  16.5082  17.0101  18.2155  18.7449  19.5846  20.2626

          k = 0.0000 0.1925-0.6197 (  6114 PWs)   bands (ev):

   -79.8122 -79.8010 -79.8001 -43.1790 -43.1128 -43.1083 -43.0733 -43.0603
   -43.0595 -43.0552 -43.0507 -43.0415  -6.8101  -6.7402  -6.7393  -6.6926
    -6.6867  -6.6390  -6.6321  -6.6005  -6.5547  -6.5535  -6.5408  -6.5264
    -6.5022  -6.4941  -6.4450   5.2878   5.9915   8.6892   9.8745  11.6526
    11.8310  11.8760  12.1692  12.6208  12.7651  12.9464  12.9831  13.0117
    13.1925  13.7179  13.7479  14.1326  14.1480  14.1822  14.3171  14.3407
    14.8015  15.2812  16.2171  16.9974  18.0788  18.4576  19.1150  19.7257

          k = 0.0000 0.3849 0.0000 (  6146 PWs)   bands (ev):

   -79.8103 -79.8029 -79.8001 -43.1643 -43.1130 -43.0972 -43.0706 -43.0704
   -43.0628 -43.0601 -43.0599 -43.0438  -6.8213  -6.7371  -6.7299  -6.7252
    -6.7209  -6.6246  -6.5844  -6.5789  -6.5780  -6.5725  -6.5208  -6.5085
    -6.4999  -6.4995  -6.4613   4.2120   6.6074   8.0184   9.8106  11.3535
    11.5231  12.0720  12.1258  12.5733  12.6535  12.7607  12.7907  13.0147
    13.3167  13.9033  14.0006  14.2313  14.2325  14.9612  15.2634  15.9334
    16.8407  17.2865  17.3148  17.8817  18.7647  18.9207  19.3473  19.8178

          k = 0.0000 0.3849 0.2066 (  6138 PWs)   bands (ev):

   -79.8103 -79.8029 -79.8001 -43.1643 -43.1130 -43.0971 -43.0706 -43.0705
   -43.0628 -43.0601 -43.0598 -43.0437  -6.8178  -6.7467  -6.7330  -6.7180
    -6.7130  -6.6220  -6.5977  -6.5858  -6.5732  -6.5707  -6.5200  -6.5099
    -6.4965  -6.4952  -6.4582   4.4381   6.7633   7.9818  10.0513  10.5969
    11.3820  11.8943  12.2135  12.5622  12.5896  12.8402  12.9626  12.9983
    13.2989  13.8621  14.0820  14.2069  14.2518  14.4427  15.2367  15.4967
    16.4029  16.4167  17.1729  18.3784  18.7150  19.1531  19.7861  21.3547

          k = 0.0000 0.3849 0.4132 (  6142 PWs)   bands (ev):

   -79.8102 -79.8029 -79.8001 -43.1641 -43.1131 -43.0972 -43.0709 -43.0704
   -43.0628 -43.0601 -43.0597 -43.0438  -6.8110  -6.7540  -6.7397  -6.7058
    -6.7058  -6.6170  -6.6164  -6.5968  -6.5709  -6.5708  -6.5169  -6.5128
    -6.4906  -6.4878  -6.4525   5.0805   6.9893   7.7540   9.5775  10.7198
    11.2011  11.4153  12.0949  12.3386  12.7838  12.9485  13.0627  13.1553
    13.2787  13.7767  13.9496  14.1744  14.2410  14.2714  14.4122  14.7462
    15.5865  15.7435  16.9710  18.7801  18.9486  19.8161  20.8859  21.7185

          k = 0.0000 0.3849-0.6197 (  6142 PWs)   bands (ev):

   -79.8102 -79.8029 -79.8001 -43.1641 -43.1132 -43.0972 -43.0710 -43.0705
   -43.0626 -43.0602 -43.0596 -43.0438  -6.8076  -6.7559  -6.7419  -6.7031
    -6.7006  -6.6263  -6.6137  -6.6020  -6.5717  -6.5701  -6.5147  -6.5144
    -6.4879  -6.4842  -6.4498   5.7622   6.5395   7.8093   9.2314  11.0198
    11.1637  11.4754  11.7994  12.1595  12.8234  13.0468  13.2195  13.2484
    13.2989  13.6112  13.7119  14.0240  14.1566  14.2003  14.2805  14.4115
    15.0323  15.6781  17.3559  18.6376  19.1799  20.0868  20.1337  22.0082

          k = 0.0000-0.5774 0.0000 (  6130 PWs)   bands (ev):

   -79.8087 -79.8045 -79.8001 -43.1543 -43.1132 -43.0869 -43.0803 -43.0698
   -43.0689 -43.0644 -43.0596 -43.0442  -6.8195  -6.7489  -6.7360  -6.7317
    -6.7180  -6.6242  -6.5829  -6.5774  -6.5755  -6.5715  -6.5242  -6.4991
    -6.4945  -6.4754  -6.4750   5.0058   5.4924   7.9474   9.6244  11.4620
    11.6219  12.0336  12.3327  12.5693  12.5933  12.6479  12.8544  13.1748
    13.4975  13.7068  13.9279  14.1546  14.2316  15.3238  15.6008  16.2849
    16.3884  17.0097  17.9112  18.4462  18.5883  18.6516  18.8173  20.5104

          k = 0.0000-0.5774 0.2066 (  6156 PWs)   bands (ev):

   -79.8087 -79.8045 -79.8001 -43.1543 -43.1134 -43.0871 -43.0805 -43.0698
   -43.0689 -43.0645 -43.0599 -43.0443  -6.8163  -6.7561  -6.7356  -6.7217
    -6.7191  -6.6222  -6.5910  -6.5771  -6.5768  -6.5745  -6.5262  -6.4990
    -6.4915  -6.4725  -6.4712   5.2185   5.6980   7.9416   9.8658  10.7329
    11.4515  11.9165  11.9381  12.5249  12.6004  12.8812  12.9939  13.1871
    13.4884  13.6337  14.0486  14.1582  14.2114  14.6496  15.0984  15.2578
    16.9670  17.0520  17.3085  18.1549  18.8797  19.6322  20.0175  20.6484

          k = 0.0000-0.5774 0.4132 (  6142 PWs)   bands (ev):

   -79.8087 -79.8045 -79.8001 -43.1543 -43.1134 -43.0873 -43.0803 -43.0698
   -43.0691 -43.0644 -43.0595 -43.0443  -6.8095  -6.7623  -6.7342  -6.7208
    -6.7085  -6.6181  -6.6080  -6.5799  -6.5792  -6.5754  -6.5292  -6.5015
    -6.4840  -6.4668  -6.4633   5.7848   6.2771   7.7405   9.3736  10.5402
    10.9850  11.2931  11.9420  12.2449  12.7981  12.9867  13.2309  13.2394
    13.4737  13.5463  13.8389  14.1658  14.1759  14.2326  14.3661  14.7605
    15.6648  16.0008  18.0375  19.1282  19.6424  20.8683  21.0703  21.7137

          k = 0.0000-0.5774-0.6197 (  6152 PWs)   bands (ev):

   -79.8087 -79.8045 -79.8001 -43.1540 -43.1134 -43.0873 -43.0804 -43.0698
   -43.0692 -43.0646 -43.0597 -43.0444  -6.8065  -6.7642  -6.7335  -6.7217
    -6.7023  -6.6175  -6.6164  -6.5825  -6.5800  -6.5747  -6.5307  -6.5029
    -6.4802  -6.4644  -6.4595   6.2326   7.0141   7.1533   8.5975  10.7957
    11.0437  11.3265  11.6388  11.9517  12.8391  13.1955  13.3108  13.3383
    13.4320  13.4460  13.7077  13.9428  14.1598  14.1708  14.2002  14.4263
    15.1018  15.8479  18.6021  19.8674  20.3216  20.4839  20.9368  21.8770

          k = 0.1667 0.2887 0.0000 (  6155 PWs)   bands (ev):

   -79.8108 -79.8024 -79.8001 -43.1684 -43.1142 -43.0999 -43.0712 -43.0673
   -43.0624 -43.0600 -43.0533 -43.0455  -6.8223  -6.7409  -6.7273  -6.7233
    -6.7041  -6.6322  -6.5895  -6.5809  -6.5755  -6.5701  -6.5194  -6.5132
    -6.5113  -6.4989  -6.4584   4.0116   7.3884   7.4530  10.2868  11.3573
    11.4865  11.9130  12.0758  12.3901  12.6751  12.8117  12.8178  12.9196
    13.2614  14.0028  14.0405  14.1817  14.2598  14.7992  15.2075  15.6476
    16.7742  17.1962  17.8123  18.1609  18.4109  18.4268  18.8474  20.6675

          k = 0.1667 0.2887 0.2066 (  6134 PWs)   bands (ev):

   -79.8108 -79.8024 -79.8001 -43.1682 -43.1141 -43.1000 -43.0711 -43.0672
   -43.0622 -43.0598 -43.0533 -43.0456  -6.8187  -6.7464  -6.7318  -6.7172
    -6.6982  -6.6290  -6.6028  -6.5894  -6.5695  -6.5677  -6.5187  -6.5130
    -6.5067  -6.4965  -6.4555   4.2400   7.4064   7.5937  10.1133  11.0701
    11.1511  11.8641  12.3278  12.5566  12.5968  12.6142  12.8793  13.0623
    13.2135  13.9638  14.1026  14.1540  14.2873  14.4193  15.2573  15.4985
    16.0109  16.2762  17.5355  17.6610  19.0782  19.3183  19.6443  20.7088

          k = 0.1667 0.2887 0.4132 (  6134 PWs)   bands (ev):

   -79.8108 -79.8024 -79.8001 -43.1680 -43.1141 -43.0999 -43.0715 -43.0673
   -43.0621 -43.0596 -43.0534 -43.0455  -6.8117  -6.7528  -6.7375  -6.7096
    -6.6896  -6.6229  -6.6215  -6.6032  -6.5669  -6.5667  -6.5134  -6.5126
    -6.5013  -6.4917  -6.4504   4.8935   7.0858   7.9088   9.5505  10.9494
    10.9806  11.9558  12.2038  12.3891  12.6754  12.8031  12.9778  13.1521
    13.2182  13.8335  14.0238  14.1590  14.2728  14.3435  14.4612  14.6536
    15.4644  15.5215  17.2753  17.7692  19.0382  19.0469  20.6849  21.8127

          k = 0.1667 0.2887-0.6197 (  6140 PWs)   bands (ev):

   -79.8108 -79.8024 -79.8001 -43.1680 -43.1142 -43.1000 -43.0718 -43.0673
   -43.0622 -43.0595 -43.0534 -43.0456  -6.8082  -6.7551  -6.7395  -6.7066
    -6.6860  -6.6310  -6.6187  -6.6098  -6.5674  -6.5664  -6.5138  -6.5070
    -6.5008  -6.4894  -6.4480   5.6119   6.3689   8.0875   9.5468  10.7766
    11.0117  11.8764  12.0393  12.4298  12.8649  12.9275  12.9900  13.1688
    13.3590  13.6557  13.7135  14.0879  14.1457  14.1755  14.3697  14.3832
    15.1007  15.8285  16.7007  17.6563  19.1313  19.5242  20.2091  21.1650

          k = 0.1667 0.4811 0.0000 (  6145 PWs)   bands (ev):

   -79.8087 -79.8045 -79.8001 -43.1524 -43.1188 -43.0860 -43.0808 -43.0688
   -43.0645 -43.0624 -43.0598 -43.0487  -6.8200  -6.7663  -6.7282  -6.7204
    -6.7064  -6.6412  -6.5947  -6.5766  -6.5727  -6.5586  -6.5292  -6.4968
    -6.4922  -6.4838  -6.4676   4.7992   6.0562   7.1488  10.4337  11.4759
    11.6393  12.0008  12.1927  12.3327  12.6533  12.6587  12.7951  13.2570
    13.4701  13.7951  13.8424  14.1457  14.2924  15.3679  15.5350  15.8502
    16.8501  17.0118  17.4266  17.8577  18.0390  18.9695  19.6502  20.5719

          k = 0.1667 0.4811 0.2066 (  6143 PWs)   bands (ev):

   -79.8087 -79.8045 -79.8001 -43.1523 -43.1188 -43.0860 -43.0808 -43.0690
   -43.0645 -43.0624 -43.0598 -43.0486  -6.8166  -6.7673  -6.7295  -6.7202
    -6.7017  -6.6394  -6.6012  -6.5764  -6.5738  -6.5634  -6.5290  -6.4946
    -6.4907  -6.4816  -6.4645   5.0167   6.2440   7.2624  10.3050  10.8757
    11.4445  11.9199  11.9704  12.4919  12.5924  12.8071  12.8697  13.2847
    13.4264  13.7377  13.9486  14.0956  14.3142  14.6940  15.2465  15.3989
    15.8696  16.5496  17.8381  18.4347  19.1135  19.9336  20.1066  21.1797

          k = 0.1667 0.4811 0.4132 (  6130 PWs)   bands (ev):

   -79.8087 -79.8045 -79.8001 -43.1523 -43.1187 -43.0861 -43.0807 -43.0690
   -43.0645 -43.0623 -43.0596 -43.0486  -6.8097  -6.7690  -6.7316  -6.7185
    -6.6940  -6.6354  -6.6147  -6.5777  -6.5760  -6.5727  -6.5264  -6.4918
    -6.4881  -6.4761  -6.4584   5.6177   6.7197   7.4007   9.4336  10.2654
    10.8616  11.7632  12.0166  12.3505  12.7767  12.8841  13.0914  13.3062
    13.4399  13.6054  13.8771  14.0975  14.1776  14.3217  14.3850  14.6422
    15.6139  16.4316  17.6940  18.6450  19.4869  20.4000  21.0991  22.2839

          k = 0.1667 0.4811-0.6197 (  6144 PWs)   bands (ev):

   -79.8087 -79.8045 -79.8001 -43.1522 -43.1188 -43.0861 -43.0807 -43.0692
   -43.0645 -43.0624 -43.0598 -43.0486  -6.8064  -6.7696  -6.7325  -6.7176
    -6.6902  -6.6334  -6.6219  -6.5802  -6.5783  -6.5751  -6.5245  -6.4920
    -6.4857  -6.4735  -6.4556   6.1785   6.9553   7.2936   8.9284  10.1657
    10.2825  11.9034  12.0723  12.1447  12.8549  13.0077  13.0679  13.4384
    13.4817  13.5988  13.7059  14.0039  14.1134  14.1533  14.1753  14.4257
    15.4360  16.4482  17.6430  18.7122  19.4485  20.7889  20.8479  22.1228

          k = 0.3333 0.5774 0.0000 (  6147 PWs)   bands (ev):

   -79.8066 -79.8065 -79.8002 -43.1352 -43.1351 -43.0852 -43.0767 -43.0666
   -43.0664 -43.0597 -43.0588 -43.0587  -6.8199  -6.7790  -6.7231  -6.7231
    -6.6737  -6.6737  -6.6028  -6.5727  -6.5727  -6.5420  -6.5420  -6.4947
    -6.4807  -6.4807  -6.4700   5.6370   5.6371   6.2747  11.3928  11.5380
    11.5381  11.8241  11.8241  12.5278  12.5279  12.6191  12.7134  13.5901
    13.5902  13.6625  13.6626  14.0581  14.3723  15.6885  15.9718  15.9719
    16.4228  16.4229  16.9929  17.7319  17.7321  18.8472  21.0969  21.4394

          k = 0.3333 0.5774 0.2066 (  6126 PWs)   bands (ev):

   -79.8066 -79.8065 -79.8002 -43.1349 -43.1348 -43.0851 -43.0766 -43.0666
   -43.0665 -43.0598 -43.0587 -43.0586  -6.8165  -6.7785  -6.7231  -6.7231
    -6.6720  -6.6720  -6.6074  -6.5736  -6.5736  -6.5438  -6.5438  -6.4934
    -6.4771  -6.4771  -6.4697   5.8367   5.8369   6.4502  10.9553  10.9553
    11.0621  11.9412  11.9413  12.5928  12.5929  12.7366  12.7627  13.5116
    13.5117  13.7357  13.7357  13.9879  14.3823  15.1081  15.1081  15.2318
    16.2431  16.2431  16.5415  19.5711  19.5712  20.3149  21.1295  21.3055

          k = 0.3333 0.5774 0.4132 (  6147 PWs)   bands (ev):

   -79.8066 -79.8065 -79.8002 -43.1349 -43.1348 -43.0851 -43.0769 -43.0669
   -43.0667 -43.0597 -43.0588 -43.0587  -6.8094  -6.7779  -6.7233  -6.7233
    -6.6688  -6.6688  -6.6168  -6.5786  -6.5786  -6.5449  -6.5449  -6.4910
    -6.4706  -6.4706  -6.4698   6.3548   6.3550   6.8970   9.8894   9.8895
    10.2365  12.0306  12.0307  12.6458  12.6458  12.7909  13.2328  13.3332
    13.3333  13.8262  13.8263  13.8424  14.2388  14.2389  14.4030  14.5638
    16.2131  16.9527  16.9528  19.3114  19.3115  19.6749  21.7875  22.9415

          k = 0.3333 0.5774-0.6197 (  6126 PWs)   bands (ev):

   -79.8066 -79.8065 -79.8002 -43.1348 -43.1347 -43.0849 -43.0769 -43.0668
   -43.0667 -43.0598 -43.0587 -43.0586  -6.8057  -6.7775  -6.7233  -6.7233
    -6.6669  -6.6669  -6.6214  -6.5819  -6.5819  -6.5443  -6.5443  -6.4895
    -6.4699  -6.4674  -6.4674   6.7396   6.7397   7.2152   9.2589   9.2589
     9.7211  12.0753  12.0754  12.6431  12.6431  12.8240  13.2260  13.2262
    13.6999  13.7654  13.8607  13.8608  14.0270  14.0271  14.1490  14.4221
    16.0290  18.0024  18.0025  18.0427  18.0427  19.1636  22.0803  24.3695

 ------ SPIN DOWN ----------


          k = 0.0000 0.0000 0.0000 (  6219 PWs)   bands (ev):

   -79.6121 -79.5993 -79.5992 -42.9817 -42.9243 -42.9242 -42.9159 -42.9023
   -42.9022 -42.8590 -42.8514 -42.8513  -6.8291  -6.7268  -6.7268  -6.6896
    -6.6896  -6.6072  -6.5911  -6.5911  -6.5834  -6.5834  -6.5709  -6.5709
    -6.5027  -6.5027  -6.4526   3.3944   7.9476   9.5149  10.7257  10.7258
    11.4296  11.8037  12.0796  12.1048  12.1049  12.7758  12.7758  13.2056
    13.2057  14.3398  14.3496  14.3497  14.4068  14.4069  15.2449  15.3572
    16.1195  16.1196  17.5495  18.2067  19.7232  19.7233  20.3893  21.4012

          k = 0.0000 0.0000 0.2066 (  6153 PWs)   bands (ev):

   -79.6121 -79.5993 -79.5992 -42.9813 -42.9241 -42.9240 -42.9153 -42.9021
   -42.9019 -42.8589 -42.8511 -42.8510  -6.8247  -6.7290  -6.7290  -6.6883
    -6.6883  -6.6144  -6.6144  -6.6010  -6.5680  -6.5680  -6.5646  -6.5646
    -6.5021  -6.5021  -6.4504   3.6283   7.7089   9.3877  10.7765  10.9810
    10.9811  11.7462  12.1729  12.1730  12.6032  12.7739  12.7739  13.2164
    13.2165  14.3282  14.3509  14.3509  14.3858  14.3859  15.2451  15.3299
    15.7470  15.7471  17.4081  18.5096  18.7573  19.1116  19.1117  20.0229

          k = 0.0000 0.0000 0.4132 (  6080 PWs)   bands (ev):

   -79.6121 -79.5993 -79.5992 -42.9806 -42.9236 -42.9235 -42.9159 -42.9014
   -42.9013 -42.8582 -42.8511 -42.8511  -6.8168  -6.7335  -6.7335  -6.6859
    -6.6859  -6.6369  -6.6369  -6.5884  -6.5619  -6.5619  -6.5509  -6.5509
    -6.5020  -6.5020  -6.4470   4.3075   6.7917   9.1913  10.1566  11.6923
    11.6923  12.3054  12.3055  12.4429  12.7570  12.7570  12.7996  13.2647
    13.2647  14.3055  14.3338  14.3339  14.3459  14.3460  14.7379  14.7380
    14.9480  15.2457  16.5303  16.7272  18.1571  18.1573  19.1237  19.1238

          k = 0.0000 0.0000-0.6197 (  6080 PWs)   bands (ev):

   -79.6121 -79.5993 -79.5992 -42.9807 -42.9236 -42.9236 -42.9161 -42.9015
   -42.9013 -42.8581 -42.8510 -42.8509  -6.8129  -6.7360  -6.7360  -6.6848
    -6.6848  -6.6461  -6.6461  -6.5822  -6.5585  -6.5585  -6.5465  -6.5465
    -6.5025  -6.5025  -6.4454   5.1154   5.7883   9.1104  10.0815  12.3665
    12.3666  12.4510  12.4510  12.6173  12.6174  12.8655  12.9013  13.3090
    13.3091  13.8662  13.8664  14.2939  14.3274  14.3274  14.3937  14.3938
    14.5997  15.2458  15.9161  16.3164  17.7416  17.7418  18.8848  18.8848

          k = 0.0000 0.1925 0.0000 (  6154 PWs)   bands (ev):

   -79.6114 -79.6000 -79.5992 -42.9749 -42.9230 -42.9194 -42.9148 -42.9027
   -42.9020 -42.8619 -42.8587 -42.8525  -6.8267  -6.7286  -6.7263  -6.7091
    -6.7020  -6.6212  -6.5892  -6.5846  -6.5842  -6.5838  -6.5445  -6.5389
    -6.5096  -6.5020  -6.4552   3.6004   7.7606   8.5353  10.3218  11.1537
    11.4789  11.8924  12.0974  12.4769  12.5233  12.7751  12.8233  13.1008
    13.2716  14.2670  14.3358  14.3962  14.4352  14.5632  15.2627  15.6842
    16.2472  16.4549  17.7858  18.0893  18.9672  19.6305  19.6731  20.0800

          k = 0.0000 0.1925 0.2066 (  6142 PWs)   bands (ev):

   -79.6114 -79.6000 -79.5992 -42.9747 -42.9229 -42.9193 -42.9147 -42.9027
   -42.9019 -42.8618 -42.8588 -42.8525  -6.8229  -6.7335  -6.7315  -6.7039
    -6.6972  -6.6168  -6.6098  -6.6054  -6.5711  -6.5683  -6.5423  -6.5359
    -6.5084  -6.5005  -6.4529   3.8326   7.6369   8.5709  10.5638  10.6264
    11.2067  11.8667  12.5596  12.5600  12.6375  12.7335  12.7741  13.0873
    13.2639  14.2450  14.3593  14.3704  14.4304  14.4677  15.2804  15.7031
    15.8578  16.0175  17.1787  17.7474  18.8756  18.9606  19.4488  20.6442

          k = 0.0000 0.1925 0.4132 (  6128 PWs)   bands (ev):

   -79.6114 -79.6000 -79.5992 -42.9745 -42.9229 -42.9193 -42.9150 -42.9025
   -42.9015 -42.8619 -42.8587 -42.8525  -6.8155  -6.7400  -6.7387  -6.6968
    -6.6907  -6.6316  -6.6259  -6.6071  -6.5610  -6.5595  -6.5407  -6.5306
    -6.5054  -6.4973  -6.4489   4.5040   6.9127   8.6601   9.9832  11.2270
    11.3463  12.1388  12.4918  12.5805  12.7923  12.8599  12.9149  13.0906
    13.2569  14.1719  14.2619  14.3326  14.4228  14.5181  14.6771  14.7964
    15.2553  15.3674  16.6048  17.0972  18.2635  18.7780  19.6338  20.3109

          k = 0.0000 0.1925-0.6197 (  6114 PWs)   bands (ev):

   -79.6114 -79.6000 -79.5992 -42.9743 -42.9228 -42.9191 -42.9154 -42.9023
   -42.9014 -42.8617 -42.8589 -42.8524  -6.8118  -6.7423  -6.7415  -6.6939
    -6.6881  -6.6409  -6.6341  -6.6022  -6.5569  -6.5558  -6.5419  -6.5279
    -6.5038  -6.4957  -6.4470   5.2833   5.9882   8.7070   9.9268  11.7030
    11.8718  11.9134  12.2261  12.6722  12.9103  13.0177  13.0401  13.0961
    13.2559  13.8637  13.8933  14.2835  14.3025  14.3340  14.5292  14.5560
    14.8317  15.4029  16.3113  17.1046  18.1235  18.4886  19.1830  19.7887

          k = 0.0000 0.3849 0.0000 (  6146 PWs)   bands (ev):

   -79.6094 -79.6020 -79.5992 -42.9601 -42.9185 -42.9126 -42.9070 -42.9048
   -42.9018 -42.8782 -42.8733 -42.8536  -6.8230  -6.7382  -6.7323  -6.7264
    -6.7234  -6.6262  -6.5860  -6.5817  -6.5807  -6.5740  -6.5223  -6.5097
    -6.5014  -6.5010  -6.4632   4.2094   6.6053   8.0220   9.8235  11.4091
    11.6068  12.1126  12.2752  12.6660  12.7524  12.8700  12.8889  13.0995
    13.4528  14.0548  14.2185  14.3917  14.4440  15.0716  15.4093  16.0347
    16.9153  17.3269  17.3886  17.9097  18.8038  18.9493  19.3675  19.8400

          k = 0.0000 0.3849 0.2066 (  6138 PWs)   bands (ev):

   -79.6094 -79.6020 -79.5992 -42.9601 -42.9184 -42.9127 -42.9069 -42.9048
   -42.9018 -42.8782 -42.8732 -42.8535  -6.8195  -6.7483  -6.7347  -6.7199
    -6.7148  -6.6235  -6.5996  -6.5881  -6.5756  -6.5727  -6.5215  -6.5111
    -6.4981  -6.4968  -6.4602   4.4353   6.7612   7.9854  10.0645  10.6203
    11.4564  11.9932  12.2932  12.6526  12.7176  12.9378  13.0799  13.0881
    13.4269  14.0114  14.2937  14.3684  14.4594  14.5800  15.3849  15.5886
    16.4731  16.4817  17.2257  18.4229  18.7495  19.1737  19.8207  21.3753

          k = 0.0000 0.3849 0.4132 (  6142 PWs)   bands (ev):

   -79.6094 -79.6020 -79.5992 -42.9600 -42.9186 -42.9129 -42.9070 -42.9047
   -42.9016 -42.8783 -42.8733 -42.8536  -6.8127  -6.7556  -6.7415  -6.7077
    -6.7076  -6.6188  -6.6179  -6.5988  -6.5733  -6.5731  -6.5185  -6.5139
    -6.4922  -6.4894  -6.4544   5.0772   6.9859   7.7577   9.5930  10.7352
    11.2600  11.4565  12.2059  12.4071  12.9253  13.0515  13.1641  13.2774
    13.3933  13.9220  14.0902  14.3326  14.4244  14.4782  14.5594  14.8708
    15.6454  15.8553  17.0379  18.8205  18.9994  19.8413  20.9195  21.7429

          k = 0.0000 0.3849-0.6197 (  6142 PWs)   bands (ev):

   -79.6094 -79.6020 -79.5992 -42.9599 -42.9186 -42.9131 -42.9070 -42.9045
   -42.9016 -42.8782 -42.8734 -42.8536  -6.8093  -6.7576  -6.7438  -6.7049
    -6.7025  -6.6280  -6.6152  -6.6040  -6.5740  -6.5726  -6.5164  -6.5154
    -6.4895  -6.4858  -6.4517   5.7587   6.5346   7.8152   9.2444  11.0593
    11.2064  11.4974  11.8392  12.2683  12.9572  13.1722  13.3333  13.3457
    13.4024  13.7654  13.8578  14.1652  14.3107  14.3371  14.4854  14.6078
    15.1050  15.8079  17.4060  18.7093  19.2094  20.1021  20.1821  22.0535

          k = 0.0000-0.5774 0.0000 (  6130 PWs)   bands (ev):

   -79.6078 -79.6036 -79.5992 -42.9517 -42.9109 -42.9078 -42.9064 -42.9016
   -42.8974 -42.8907 -42.8891 -42.8538  -6.8212  -6.7499  -6.7372  -6.7342
    -6.7205  -6.6257  -6.5844  -6.5802  -6.5783  -6.5730  -6.5257  -6.5006
    -6.4957  -6.4774  -6.4765   5.0056   5.4869   7.9481   9.6358  11.5411
    11.6999  12.0975  12.4935  12.6683  12.6885  12.7455  12.9555  13.2651
    13.6365  13.8543  14.1356  14.3628  14.3908  15.4807  15.6841  16.3435
    16.4545  17.0935  17.9698  18.4688  18.6073  18.6912  18.8616  20.5235

          k = 0.0000-0.5774 0.2066 (  6156 PWs)   bands (ev):

   -79.6078 -79.6036 -79.5992 -42.9517 -42.9110 -42.9080 -42.9065 -42.9018
   -42.8976 -42.8910 -42.8892 -42.8539  -6.8180  -6.7575  -6.7367  -6.7238
    -6.7216  -6.6238  -6.5925  -6.5799  -6.5797  -6.5760  -6.5278  -6.5002
    -6.4930  -6.4745  -6.4727   5.2181   5.6925   7.9426   9.8776  10.7638
    11.5087  11.9830  12.0622  12.6170  12.7409  12.9818  13.1230  13.2802
    13.6267  13.7756  14.2504  14.3664  14.3700  14.7704  15.2095  15.4114
    17.0317  17.1104  17.3294  18.2087  18.9007  19.6763  20.0368  20.6807

          k = 0.0000-0.5774 0.4132 (  6142 PWs)   bands (ev):

   -79.6078 -79.6036 -79.5992 -42.9517 -42.9111 -42.9080 -42.9064 -42.9015
   -42.8974 -42.8912 -42.8891 -42.8538  -6.8112  -6.7639  -6.7353  -6.7233
    -6.7105  -6.6196  -6.6095  -6.5820  -6.5814  -6.5783  -6.5307  -6.5026
    -6.4856  -6.4687  -6.4649   5.7836   6.2718   7.7409   9.3835  10.5540
    11.0071  11.3521  12.0787  12.3087  12.9381  13.0958  13.3326  13.3862
    13.6022  13.6869  13.9728  14.3337  14.3739  14.4046  14.5232  14.8876
    15.7403  16.1161  18.0603  19.1722  19.6656  20.9170  21.1017  21.7279

          k = 0.0000-0.5774-0.6197 (  6152 PWs)   bands (ev):

   -79.6078 -79.6036 -79.5992 -42.9514 -42.9113 -42.9080 -42.9066 -42.9016
   -42.8975 -42.8911 -42.8891 -42.8540  -6.8082  -6.7657  -6.7346  -6.7242
    -6.7043  -6.6190  -6.6179  -6.5840  -6.5828  -6.5776  -6.5322  -6.5040
    -6.4819  -6.4663  -6.4611   6.2303   7.0064   7.1544   8.6040  10.8323
    11.0738  11.3449  11.6760  12.0912  12.9696  13.3269  13.4365  13.4407
    13.5572  13.6044  13.8539  14.0753  14.3172  14.3262  14.3777  14.6192
    15.1880  15.9831  18.6271  19.8896  20.3432  20.5586  20.9524  21.9181

          k = 0.1667 0.2887 0.0000 (  6155 PWs)   bands (ev):

   -79.6100 -79.6014 -79.5992 -42.9639 -42.9219 -42.9133 -42.9099 -42.9043
   -42.9019 -42.8758 -42.8624 -42.8567  -6.8240  -6.7420  -6.7298  -6.7258
    -6.7052  -6.6338  -6.5910  -6.5837  -6.5783  -6.5716  -6.5209  -6.5143
    -6.5129  -6.5004  -6.4604   4.0088   7.3891   7.4536  10.3181  11.3814
    11.5721  12.0215  12.1071  12.5144  12.7751  12.8917  12.9318  13.0185
    13.3962  14.1561  14.2449  14.3390  14.4947  14.9207  15.3329  15.7858
    16.8644  17.2610  17.8298  18.1793  18.4646  18.4668  18.8730  20.6770

          k = 0.1667 0.2887 0.2066 (  6134 PWs)   bands (ev):

   -79.6100 -79.6014 -79.5992 -42.9637 -42.9218 -42.9132 -42.9100 -42.9042
   -42.9018 -42.8756 -42.8625 -42.8567  -6.8203  -6.7478  -6.7341  -6.7194
    -6.6995  -6.6306  -6.6046  -6.5917  -6.5720  -6.5697  -6.5203  -6.5142
    -6.5083  -6.4981  -6.4575   4.2371   7.4065   7.5952  10.1296  11.1182
    11.2108  11.9218  12.4182  12.6530  12.7123  12.7277  12.9566  13.1702
    13.3482  14.1147  14.2812  14.3251  14.5198  14.5658  15.3837  15.6260
    16.0896  16.3256  17.5947  17.7109  19.0988  19.3550  19.6699  20.7347

          k = 0.1667 0.2887 0.4132 (  6134 PWs)   bands (ev):

   -79.6100 -79.6014 -79.5992 -42.9635 -42.9218 -42.9135 -42.9099 -42.9041
   -42.9016 -42.8758 -42.8624 -42.8568  -6.8134  -6.7544  -6.7396  -6.7116
    -6.6910  -6.6246  -6.6231  -6.6053  -6.5693  -6.5689  -6.5146  -6.5143
    -6.5029  -6.4933  -6.4524   4.8900   7.0829   7.9140   9.5647  10.9838
    11.0288  12.0365  12.2551  12.4796  12.7650  12.9487  13.0603  13.2608
    13.3474  13.9782  14.1713  14.3128  14.4406  14.5763  14.5921  14.7777
    15.5201  15.6398  17.3379  17.8449  19.0691  19.0810  20.7207  21.8527

          k = 0.1667 0.2887-0.6197 (  6140 PWs)   bands (ev):

   -79.6100 -79.6014 -79.5992 -42.9634 -42.9219 -42.9138 -42.9099 -42.9041
   -42.9015 -42.8758 -42.8625 -42.8568  -6.8099  -6.7567  -6.7416  -6.7085
    -6.6874  -6.6329  -6.6202  -6.6118  -6.5697  -6.5687  -6.5149  -6.5087
    -6.5024  -6.4910  -6.4499   5.6080   6.3646   8.0965   9.5707  10.7971
    11.0226  11.9764  12.1057  12.5066  12.9976  13.0145  13.0858  13.2771
    13.4681  13.8109  13.8594  14.2371  14.2983  14.3140  14.5267  14.6212
    15.1448  15.9365  16.7811  17.7471  19.1607  19.5412  20.2613  21.2146

          k = 0.1667 0.4811 0.0000 (  6145 PWs)   bands (ev):

   -79.6078 -79.6036 -79.5992 -42.9488 -42.9186 -42.9109 -42.9065 -42.9017
   -42.8962 -42.8932 -42.8749 -42.8592  -6.8217  -6.7673  -6.7307  -6.7229
    -6.7076  -6.6427  -6.5962  -6.5795  -6.5755  -6.5601  -6.5307  -6.4983
    -6.4937  -6.4853  -6.4693   4.7973   6.0535   7.1464  10.4620  11.5423
    11.7193  12.0614  12.2771  12.4819  12.7583  12.7608  12.8876  13.3630
    13.6088  13.9426  14.0201  14.3021  14.5269  15.5034  15.6262  15.9471
    16.9069  17.0733  17.4889  17.9020  18.0956  18.9872  19.6633  20.5914

          k = 0.1667 0.4811 0.2066 (  6143 PWs)   bands (ev):

   -79.6078 -79.6036 -79.5992 -42.9487 -42.9186 -42.9110 -42.9065 -42.9018
   -42.8962 -42.8932 -42.8749 -42.8591  -6.8183  -6.7685  -6.7318  -6.7227
    -6.7030  -6.6408  -6.6028  -6.5792  -6.5765  -6.5649  -6.5306  -6.4961
    -6.4921  -6.4832  -6.4663   5.0145   6.2412   7.2602  10.3271  10.9101
    11.5088  11.9941  12.0688  12.5894  12.7236  12.9017  12.9874  13.3958
    13.5661  13.8812  14.1143  14.2494  14.5499  14.8232  15.3630  15.5201
    15.9616  16.6065  17.8685  18.4825  19.1597  19.9519  20.1321  21.2091

          k = 0.1667 0.4811 0.4132 (  6130 PWs)   bands (ev):

   -79.6078 -79.6036 -79.5992 -42.9487 -42.9185 -42.9111 -42.9065 -42.9016
   -42.8961 -42.8933 -42.8748 -42.8590  -6.8114  -6.7702  -6.7338  -6.7209
    -6.6954  -6.6368  -6.6163  -6.5802  -6.5788  -6.5744  -6.5281  -6.4931
    -6.4897  -6.4777  -6.4602   5.6151   6.7165   7.3993   9.4429  10.2800
    10.8956  11.8338  12.1296  12.4397  12.9007  12.9847  13.2212  13.4431
    13.5677  13.7402  14.0198  14.2505  14.3299  14.4667  14.6123  14.7701
    15.7042  16.4979  17.7568  18.6799  19.5292  20.4250  21.1312  22.3010

          k = 0.1667 0.4811-0.6197 (  6144 PWs)   bands (ev):

   -79.6078 -79.6036 -79.5992 -42.9486 -42.9186 -42.9113 -42.9065 -42.9018
   -42.8961 -42.8933 -42.8749 -42.8591  -6.8081  -6.7709  -6.7347  -6.7200
    -6.6917  -6.6348  -6.6234  -6.5825  -6.5804  -6.5776  -6.5262  -6.4932
    -6.4873  -6.4752  -6.4574   6.1760   6.9484   7.2958   8.9356  10.1792
    10.2928  12.0206  12.1366  12.2453  12.9652  13.1151  13.2128  13.5737
    13.6192  13.7320  13.8523  14.1445  14.2676  14.3027  14.3041  14.6602
    15.4868  16.5545  17.6925  18.7781  19.4743  20.8272  20.8638  22.1577

          k = 0.3333 0.5774 0.0000 (  6147 PWs)   bands (ev):

   -79.6057 -79.6056 -79.5992 -42.9317 -42.9316 -42.9086 -42.9085 -42.9047
   -42.9017 -42.8764 -42.8763 -42.8709  -6.8216  -6.7801  -6.7256  -6.7256
    -6.6750  -6.6750  -6.6043  -6.5755  -6.5755  -6.5435  -6.5435  -6.4962
    -6.4825  -6.4825  -6.4711   5.6369   5.6371   6.2660  11.4416  11.6083
    11.6083  11.8983  11.8983  12.6572  12.6573  12.7144  12.8057  13.7226
    13.7226  13.8051  13.8052  14.2129  14.6205  15.7994  16.0580  16.0581
    16.4981  16.4982  17.0361  17.7991  17.7993  18.8582  21.1058  21.4602

          k = 0.3333 0.5774 0.2066 (  6126 PWs)   bands (ev):

   -79.6057 -79.6056 -79.5992 -42.9314 -42.9313 -42.9087 -42.9085 -42.9046
   -42.9017 -42.8762 -42.8762 -42.8709  -6.8181  -6.7796  -6.7256  -6.7256
    -6.6733  -6.6733  -6.6089  -6.5764  -6.5764  -6.5454  -6.5454  -6.4949
    -6.4790  -6.4790  -6.4708   5.8366   5.8367   6.4414  10.9935  10.9935
    11.0970  12.0421  12.0421  12.7142  12.7143  12.8297  12.8620  13.6510
    13.6511  13.8666  13.8666  14.1399  14.6302  15.2225  15.2226  15.3493
    16.3254  16.3255  16.5903  19.6210  19.6211  20.3245  21.1548  21.1560

          k = 0.3333 0.5774 0.4132 (  6147 PWs)   bands (ev):

   -79.6057 -79.6056 -79.5992 -42.9314 -42.9313 -42.9089 -42.9088 -42.9046
   -42.9016 -42.8764 -42.8763 -42.8711  -6.8111  -6.7790  -6.7258  -6.7258
    -6.6701  -6.6701  -6.6183  -6.5812  -6.5812  -6.5467  -6.5467  -6.4925
    -6.4724  -6.4724  -6.4709   6.3544   6.3545   6.8883   9.9028   9.9029
    10.2510  12.1474  12.1474  12.7534  12.7534  12.8860  13.3493  13.4828
    13.4829  13.9492  13.9492  13.9890  14.3829  14.3829  14.6410  14.7070
    16.2446  17.0286  17.0287  19.3630  19.3631  19.7007  21.7969  22.9644

          k = 0.3333 0.5774-0.6197 (  6126 PWs)   bands (ev):

   -79.6057 -79.6056 -79.5992 -42.9313 -42.9312 -42.9088 -42.9087 -42.9044
   -42.9018 -42.8763 -42.8762 -42.8711  -6.8074  -6.7785  -6.7258  -6.7258
    -6.6682  -6.6682  -6.6229  -6.5844  -6.5844  -6.5462  -6.5462  -6.4910
    -6.4710  -6.4692  -6.4692   6.7391   6.7393   7.2066   9.2652   9.2653
     9.7289  12.1988  12.1988  12.7400  12.7400  12.9201  13.3872  13.3874
    13.8474  13.9095  13.9811  13.9811  14.1752  14.1752  14.2697  14.6722
    16.0394  18.0521  18.0522  18.1219  18.1219  19.1978  22.0884  24.3671

     the Fermi energy is    14.7132 ev

!    total energy              =   -1363.80766100 Ry
     estimated scf accuracy    <          3.8E-09 Ry
     smearing contrib. (-TS)   =       0.00608829 Ry
     internal energy E=F+TS    =   -1363.81374929 Ry

     The total energy is F=E-TS. E is the sum of the following terms:
     one-electron contribution =    -767.03379037 Ry
     hartree contribution      =     446.19906482 Ry
     xc contribution           =    -236.92571356 Ry
     ewald contribution        =    -806.05331018 Ry

     total magnetization       =     0.43 Bohr mag/cell
     absolute magnetization    =     0.52 Bohr mag/cell

     convergence has been achieved in  25 iterations

     Forces acting on atoms (cartesian axes, Ry/au):

     atom    1 type  1   force =     0.00000000    0.00000000   -0.00000000
     atom    2 type  1   force =    -0.00000000   -0.00000000   -0.00000000
     atom    3 type  1   force =    -0.00000000   -0.00000000    0.00000000
     atom    4 type  2   force =     0.00000000   -0.00000000   -0.00000000
     atom    5 type  2   force =     0.00000000    0.00000000   -0.00000000
     atom    6 type  2   force =    -0.00000000   -0.00000000    0.00000000

     Total force =     0.000000     Total SCF correction =     0.000000


     Computing stress (Cartesian axis) and pressure

          total   stress  (Ry/bohr**3)                   (kbar)     P=      -26.55
  -0.00016625  -0.00000000   0.00000000          -24.46       -0.00        0.00
  -0.00000000  -0.00016625   0.00000000           -0.00      -24.46        0.00
   0.00000000   0.00000000  -0.00020885            0.00        0.00      -30.72


     Writing all to output data dir ./out/cosn.save/ :
     XML data file, charge density, pseudopotentials, collected wavefunctions

     init_run     :      1.44s CPU      1.53s WALL (       1 calls)
     electrons    :     94.89s CPU    100.36s WALL (       1 calls)
     forces       :      0.40s CPU      0.43s WALL (       1 calls)
     stress       :      1.48s CPU      1.56s WALL (       1 calls)

     Called by init_run:
     wfcinit      :      1.06s CPU      1.10s WALL (       1 calls)
     potinit      :      0.10s CPU      0.11s WALL (       1 calls)
     hinit0       :      0.19s CPU      0.19s WALL (       1 calls)

     Called by electrons:
     c_bands      :     77.56s CPU     80.83s WALL (      25 calls)
     sum_band     :     14.49s CPU     15.86s WALL (      25 calls)
     v_of_rho     :      0.79s CPU      0.86s WALL (      26 calls)
     newd         :      1.98s CPU      2.75s WALL (      26 calls)
     mix_rho      :      0.10s CPU      0.11s WALL (      25 calls)

     Called by c_bands:
     init_us_2    :      1.11s CPU      1.13s WALL (    2968 calls)
     cegterg      :     74.82s CPU     78.08s WALL (    1400 calls)

     Called by *egterg:
     cdiaghg      :     11.31s CPU     11.36s WALL (    6806 calls)
     h_psi        :     50.56s CPU     53.64s WALL (    6862 calls)
     s_psi        :      2.11s CPU      2.13s WALL (    6862 calls)
     g_psi        :      0.42s CPU      0.42s WALL (    5406 calls)

     Called by h_psi:
     h_psi:calbec :      3.27s CPU      3.46s WALL (    6862 calls)
     vloc_psi     :     44.60s CPU     47.43s WALL (    6862 calls)
                                        0.00s GPU  (    6862 calls)
     add_vuspsi   :      2.36s CPU      2.42s WALL (    6862 calls)

     General routines
     calbec       :      4.72s CPU      4.95s WALL (    9214 calls)
     fft          :      0.37s CPU      0.40s WALL (     688 calls)
     ffts         :      0.08s CPU      0.08s WALL (     102 calls)
     fftw         :     48.80s CPU     51.82s WALL (  484802 calls)
     interpolate  :      0.09s CPU      0.10s WALL (      52 calls)

     Parallel routines

     PWSCF        :   1m38.40s CPU   1m44.12s WALL


   This run was terminated on:  10:51:14  14Jun2026            

=------------------------------------------------------------------------------=
   JOB DONE.
=------------------------------------------------------------------------------=
