
     Program PWSCF v.6.7MaX starts on  3Jun2026 at  5:27: 7 

     This program is part of the open-source Quantum ESPRESSO suite
     for quantum simulation of materials; please cite
         "P. Giannozzi et al., J. Phys.:Condens. Matter 21 395502 (2009);
         "P. Giannozzi et al., J. Phys.:Condens. Matter 29 465901 (2017);
          URL http://www.quantum-espresso.org", 
     in publications or presentations arising from this work. More details at
     http://www.quantum-espresso.org/quote

     Parallel version (MPI), running on     7 processors

     MPI processes distributed on     1 nodes
     R & G space division:  proc/nbgrp/npool/nimage =       7
     Reading input from vc-relax.in

     Current dimensions of program PWSCF are:
     Max number of different atomic species (ntypx) = 10
     Max number of k-points (npk) =  40000
     Max angular momentum in pseudopotentials (lmaxx) =  3
     Message from routine read_pp_mesh:
     mesh size missing, using the one in header
     Message from routine read_pp_mesh:
     mesh size missing, using the one in header

     Subspace diagonalization in iterative solution of the eigenvalue problem:
     a serial algorithm will be used


     Parallelization info
     --------------------
     sticks:   dense  smooth     PW     G-vecs:    dense   smooth      PW
     Min         107     107     37                 1866     1866     379
     Max         107     107     38                 1867     1867     381
     Sum         749     749    261                13067    13067    2659



     bravais-lattice index     =            3
     lattice parameter (alat)  =       6.4640  a.u.
     unit-cell volume          =     135.0436 (a.u.)^3
     number of atoms/cell      =            7
     number of atomic types    =            2
     number of electrons       =        16.00
     number of Kohn-Sham states=           12
     kinetic-energy cutoff     =      80.0000  Ry
     charge density cutoff     =     320.0000  Ry
     scf convergence threshold =      1.0E-10
     mixing beta               =       0.3000
     number of iterations used =            8  plain     mixing
     energy convergence thresh.=      1.0E-06
     force convergence thresh. =      1.0E-04
     press convergence thresh. =      5.0E-01
     Exchange-correlation= PBE
                           (   1   4   3   4   0   0   0)
     nstep                     =          200


     celldm(1)=   6.464000  celldm(2)=   0.000000  celldm(3)=   0.000000
     celldm(4)=   0.000000  celldm(5)=   0.000000  celldm(6)=   0.000000

     crystal axes: (cart. coord. in units of alat)
               a(1) = (   0.500000   0.500000   0.500000 )  
               a(2) = (  -0.500000   0.500000   0.500000 )  
               a(3) = (  -0.500000  -0.500000   0.500000 )  

     reciprocal axes: (cart. coord. in units 2 pi/alat)
               b(1) = (  1.000000  0.000000  1.000000 )  
               b(2) = ( -1.000000  1.000000  0.000000 )  
               b(3) = (  0.000000 -1.000000  1.000000 )  


     PseudoPot. # 1 for Ca read from file:
     ./pseudo/Ca_ONCV_PBE_sr.upf
     MD5 check sum: 330ced702c1f591cf481eb59685f274b
     Pseudo is Norm-conserving, Zval = 10.0
     Generated using ONCVPSP code by D. R. Hamann
     Using radial grid of 1766 points,  6 beta functions with: 
                l(1) =   0
                l(2) =   0
                l(3) =   1
                l(4) =   1
                l(5) =   2
                l(6) =   2

     PseudoPot. # 2 for H  read from file:
     ./pseudo/H_ONCV_PBE_sr.upf
     MD5 check sum: 8975ef619c0c80d0ef0fa21f3286b90d
     Pseudo is Norm-conserving, Zval =  1.0
     Generated using ONCVPSP code by D. R. Hamann
     Using radial grid of 1166 points,  2 beta functions with: 
                l(1) =   0
                l(2) =   0

     atomic species   valence    mass     pseudopotential
        Ca            10.00    40.07800     Ca( 1.00)
        H              1.00     1.00800     H ( 1.00)

     No symmetry found



   Cartesian axes

     site n.     atom                  positions (alat units)
         1           Ca  tau(   1) = (   0.0000000   0.0000000   0.0000000  )
         2           H   tau(   2) = (  -0.1250000   0.3750000   0.3750000  )
         3           H   tau(   3) = (   0.1250000   0.1250000   0.3750000  )
         4           H   tau(   4) = (  -0.3750000  -0.1250000   0.3750000  )
         5           H   tau(   5) = (   0.1250000   0.6250000   0.6250000  )
         6           H   tau(   6) = (  -0.1250000  -0.1250000   0.6250000  )
         7           H   tau(   7) = (  -0.6250000   0.1250000   0.6250000  )

     number of k points=  2052  Methfessel-Paxton smearing, width (Ry)=  0.0100

     Number of k-points >= 100: set verbosity='high' to print them.

     Dense  grid:    13067 G-vectors     FFT dimensions: (  32,  32,  32)

     Estimated max dynamical RAM per process >      94.83 MB

     Estimated total dynamical RAM >     663.78 MB

     Initial potential from superposition of free atoms

     starting charge   15.99501, renormalised to   16.00000
     Starting wfcs are   11 randomized atomic wfcs +    1 random wfcs

     total cpu time spent up to now is        4.0 secs

     Self-consistent Calculation

     iteration #  1     ecut=    80.00 Ry     beta= 0.30
     Davidson diagonalization with overlap
     ethr =  1.00E-02,  avg # of iterations =  6.8

     Threshold (ethr) on eigenvalues was too large:
     Diagonalizing with lowered threshold

     Davidson diagonalization with overlap
     ethr =  6.74E-04,  avg # of iterations =  2.1

     total cpu time spent up to now is       36.3 secs

     total energy              =     -79.43793640 Ry
     estimated scf accuracy    <       0.10465643 Ry

     iteration #  2     ecut=    80.00 Ry     beta= 0.30
     Davidson diagonalization with overlap
     ethr =  6.54E-04,  avg # of iterations =  1.1

     total cpu time spent up to now is       46.1 secs

     total energy              =     -79.42945098 Ry
     estimated scf accuracy    <       0.03966525 Ry

     iteration #  3     ecut=    80.00 Ry     beta= 0.30
     Davidson diagonalization with overlap
     ethr =  2.48E-04,  avg # of iterations =  2.7

     total cpu time spent up to now is       57.5 secs

     total energy              =     -79.43223096 Ry
     estimated scf accuracy    <       0.00180958 Ry

     iteration #  4     ecut=    80.00 Ry     beta= 0.30
     Davidson diagonalization with overlap
     c_bands:  1 eigenvalues not converged
     c_bands:  1 eigenvalues not converged
     c_bands:  1 eigenvalues not converged
     ethr =  1.13E-05,  avg # of iterations =  5.1

     total cpu time spent up to now is       72.9 secs

     total energy              =     -79.43255421 Ry
     estimated scf accuracy    <       0.00004739 Ry

     iteration #  5     ecut=    80.00 Ry     beta= 0.30
     Davidson diagonalization with overlap
     ethr =  2.96E-07,  avg # of iterations =  2.8

     total cpu time spent up to now is       84.7 secs

     total energy              =     -79.43255099 Ry
     estimated scf accuracy    <       0.00002322 Ry

     iteration #  6     ecut=    80.00 Ry     beta= 0.30
     Davidson diagonalization with overlap
     ethr =  1.45E-07,  avg # of iterations =  2.0

     total cpu time spent up to now is       95.8 secs

     total energy              =     -79.43255421 Ry
     estimated scf accuracy    <       0.00000030 Ry

     iteration #  7     ecut=    80.00 Ry     beta= 0.30
     Davidson diagonalization with overlap
     ethr =  1.90E-09,  avg # of iterations =  4.0

     total cpu time spent up to now is      111.5 secs

     total energy              =     -79.43255440 Ry
     estimated scf accuracy    <       0.00000020 Ry

     iteration #  8     ecut=    80.00 Ry     beta= 0.30
     Davidson diagonalization with overlap
     ethr =  1.24E-09,  avg # of iterations =  2.4

     total cpu time spent up to now is      124.7 secs

     total energy              =     -79.43255444 Ry
     estimated scf accuracy    <       0.00000009 Ry

     iteration #  9     ecut=    80.00 Ry     beta= 0.30
     Davidson diagonalization with overlap
     ethr =  5.90E-10,  avg # of iterations =  2.0

     total cpu time spent up to now is      136.9 secs

     total energy              =     -79.43255446 Ry
     estimated scf accuracy    <          3.7E-10 Ry

     iteration # 10     ecut=    80.00 Ry     beta= 0.30
     Davidson diagonalization with overlap
     ethr =  2.33E-12,  avg # of iterations =  4.0

     total cpu time spent up to now is      151.7 secs

     total energy              =     -79.43255446 Ry
     estimated scf accuracy    <          2.6E-10 Ry

     iteration # 11     ecut=    80.00 Ry     beta= 0.30
     Davidson diagonalization with overlap
     ethr =  1.60E-12,  avg # of iterations =  1.9

     total cpu time spent up to now is      162.6 secs

     End of self-consistent calculation

     Number of k-points >= 100: set verbosity='high' to print the bands.

     the Fermi energy is    16.6457 ev

!    total energy              =     -79.43255446 Ry
     estimated scf accuracy    <          1.9E-11 Ry
     smearing contrib. (-TS)   =       0.00003200 Ry
     internal energy E=F+TS    =     -79.43258645 Ry

     The total energy is F=E-TS. E is the sum of the following terms:
     one-electron contribution =      -3.88477975 Ry
     hartree contribution      =      12.13308346 Ry
     xc contribution           =     -15.98360727 Ry
     ewald contribution        =     -71.69728289 Ry

     convergence has been achieved in  11 iterations

     Forces acting on atoms (cartesian axes, Ry/au):

     atom    1 type  1   force =     0.00000000   -0.00000000    0.00000000
     atom    2 type  2   force =     0.23513073   -0.04567865   -0.07859395
     atom    3 type  2   force =     0.04567864    0.07859395    0.23513074
     atom    4 type  2   force =     0.07859395    0.23513074   -0.04567865
     atom    5 type  2   force =    -0.23513074    0.04567865    0.07859395
     atom    6 type  2   force =    -0.04567864   -0.07859395   -0.23513074
     atom    7 type  2   force =    -0.07859395   -0.23513074    0.04567865

     Total force =     0.617495     Total SCF correction =     0.000002


     Computing stress (Cartesian axis) and pressure

          total   stress  (Ry/bohr**3)                   (kbar)     P=     2362.72
   0.01606144   0.00163558  -0.00163558         2362.72      240.60     -240.60
   0.00163558   0.01606144   0.00163558          240.60     2362.72      240.60
  -0.00163558   0.00163558   0.01606144         -240.60      240.60     2362.72


     BFGS Geometry Optimization
     Energy error            =      0.0E+00
     Gradient error          =      2.4E-01
     Cell gradient error     =      4.5E-03


     number of scf cycles    =   1
     number of bfgs steps    =   0

     enthalpy new            =     -77.8719411604 Ry

     new trust radius        =       0.2942496565 bohr
     new conv_thr            =            1.0E-10 Ry

     new unit-cell volume =    185.23202 a.u.^3 (    27.44855 Ang^3 )
     density =      2.79046 g/cm^3

CELL_PARAMETERS (alat=  6.46400000)
   0.556313415   0.597202822   0.556313425
  -0.556313361   0.556313386   0.597202807
  -0.597202797  -0.556313403   0.556313388

ATOMIC_POSITIONS (crystal)
Ca            0.0000000005       -0.0000000007        0.0000000003
H             0.2742167057        0.4565579549       -0.0050920946
H             0.5434420463        0.0050920949        0.2742167075
H             0.0050920940        0.2742167065        0.4565579530
H             0.7257832936        0.5434420460        0.0050920943
H             0.4565579539       -0.0050920952        0.7257832925
H            -0.0050920942        0.7257832935        0.5434420469



     Writing output data file ./out/cah6.save/
     NEW-OLD atomic charge density approx. for the potential
     extrapolated charge   20.33383, renormalised to   16.00000

     total cpu time spent up to now is      167.0 secs

     Self-consistent Calculation

     iteration #  1     ecut=    80.00 Ry     beta= 0.30
     Davidson diagonalization with overlap
     c_bands:  1 eigenvalues not converged
     c_bands:  1 eigenvalues not converged
     c_bands:  1 eigenvalues not converged
     c_bands:  1 eigenvalues not converged
     c_bands:  1 eigenvalues not converged
     c_bands:  1 eigenvalues not converged
     c_bands:  2 eigenvalues not converged
     c_bands:  1 eigenvalues not converged
     c_bands:  2 eigenvalues not converged
     c_bands:  1 eigenvalues not converged
     c_bands:  1 eigenvalues not converged
     c_bands:  1 eigenvalues not converged
     c_bands:  1 eigenvalues not converged
     c_bands:  1 eigenvalues not converged
     c_bands:  1 eigenvalues not converged
     c_bands:  1 eigenvalues not converged
     c_bands:  1 eigenvalues not converged
     c_bands:  1 eigenvalues not converged
     c_bands:  1 eigenvalues not converged
     c_bands:  1 eigenvalues not converged
     c_bands:  1 eigenvalues not converged
     c_bands:  1 eigenvalues not converged
     c_bands:  1 eigenvalues not converged
     c_bands:  1 eigenvalues not converged
     c_bands:  1 eigenvalues not converged
     c_bands:  1 eigenvalues not converged
     c_bands:  1 eigenvalues not converged
     c_bands:  1 eigenvalues not converged
     c_bands:  1 eigenvalues not converged
     c_bands:  1 eigenvalues not converged
     c_bands:  1 eigenvalues not converged
     c_bands:  1 eigenvalues not converged
     c_bands:  1 eigenvalues not converged
     c_bands:  1 eigenvalues not converged
     c_bands:  1 eigenvalues not converged
     c_bands:  1 eigenvalues not converged
     c_bands:  1 eigenvalues not converged
     c_bands:  1 eigenvalues not converged
     c_bands:  1 eigenvalues not converged
     c_bands:  1 eigenvalues not converged
     c_bands:  1 eigenvalues not converged
     c_bands:  1 eigenvalues not converged
     c_bands:  1 eigenvalues not converged
     c_bands:  1 eigenvalues not converged
     c_bands:  1 eigenvalues not converged
     c_bands:  1 eigenvalues not converged
     c_bands:  1 eigenvalues not converged
     c_bands:  1 eigenvalues not converged
     c_bands:  1 eigenvalues not converged
     c_bands:  1 eigenvalues not converged
     c_bands:  1 eigenvalues not converged
     c_bands:  1 eigenvalues not converged
     c_bands:  1 eigenvalues not converged
     c_bands:  1 eigenvalues not converged
     c_bands:  2 eigenvalues not converged
     c_bands:  1 eigenvalues not converged
     c_bands:  1 eigenvalues not converged
     c_bands:  1 eigenvalues not converged
     c_bands:  1 eigenvalues not converged
     c_bands:  1 eigenvalues not converged
     c_bands:  1 eigenvalues not converged
     c_bands:  1 eigenvalues not converged
     c_bands:  1 eigenvalues not converged
     c_bands:  1 eigenvalues not converged
     c_bands:  1 eigenvalues not converged
     c_bands:  1 eigenvalues not converged
     c_bands:  1 eigenvalues not converged
     c_bands:  1 eigenvalues not converged
     c_bands:  1 eigenvalues not converged
     c_bands:  1 eigenvalues not converged
     c_bands:  1 eigenvalues not converged
     c_bands:  1 eigenvalues not converged
     c_bands:  1 eigenvalues not converged
     c_bands:  1 eigenvalues not converged
     c_bands:  1 eigenvalues not converged
     c_bands:  1 eigenvalues not converged
     c_bands:  1 eigenvalues not converged
     c_bands:  1 eigenvalues not converged
     c_bands:  1 eigenvalues not converged
     c_bands:  1 eigenvalues not converged
     c_bands:  1 eigenvalues not converged
     c_bands:  1 eigenvalues not converged
     c_bands:  1 eigenvalues not converged
     c_bands:  1 eigenvalues not converged
     c_bands:  1 eigenvalues not converged
     c_bands:  1 eigenvalues not converged
     c_bands:  1 eigenvalues not converged
     c_bands:  1 eigenvalues not converged
     c_bands:  1 eigenvalues not converged
     c_bands:  1 eigenvalues not converged
     c_bands:  1 eigenvalues not converged
     ethr =  1.00E-06,  avg # of iterations = 14.7

     total cpu time spent up to now is      215.0 secs

     total energy              =     -79.05959405 Ry
     estimated scf accuracy    <       0.74435550 Ry

     iteration #  2     ecut=    80.00 Ry     beta= 0.30
     Davidson diagonalization with overlap
     ethr =  4.65E-03,  avg # of iterations =  4.9

     total cpu time spent up to now is      234.0 secs

     total energy              =     -80.30553114 Ry
     estimated scf accuracy    <       0.43481265 Ry

     iteration #  3     ecut=    80.00 Ry     beta= 0.30
     Davidson diagonalization with overlap
     ethr =  2.72E-03,  avg # of iterations =  1.2

     total cpu time spent up to now is      243.9 secs

     total energy              =     -80.18693787 Ry
     estimated scf accuracy    <       0.20056686 Ry

     iteration #  4     ecut=    80.00 Ry     beta= 0.30
     Davidson diagonalization with overlap
     ethr =  1.25E-03,  avg # of iterations =  2.1

     total cpu time spent up to now is      257.3 secs

     total energy              =     -80.24087325 Ry
     estimated scf accuracy    <       0.00527542 Ry

     iteration #  5     ecut=    80.00 Ry     beta= 0.30
     Davidson diagonalization with overlap
     ethr =  3.30E-05,  avg # of iterations =  6.1

     total cpu time spent up to now is      274.8 secs

     total energy              =     -80.23827445 Ry
     estimated scf accuracy    <       0.00726374 Ry

     iteration #  6     ecut=    80.00 Ry     beta= 0.30
     Davidson diagonalization with overlap
     ethr =  3.30E-05,  avg # of iterations =  2.3

     total cpu time spent up to now is      286.5 secs

     total energy              =     -80.23837800 Ry
     estimated scf accuracy    <       0.00079387 Ry

     iteration #  7     ecut=    80.00 Ry     beta= 0.30
     Davidson diagonalization with overlap
     ethr =  4.96E-06,  avg # of iterations =  5.6

     total cpu time spent up to now is      304.8 secs

     total energy              =     -80.23876077 Ry
     estimated scf accuracy    <       0.00028764 Ry

     iteration #  8     ecut=    80.00 Ry     beta= 0.30
     Davidson diagonalization with overlap
     ethr =  1.80E-06,  avg # of iterations =  1.9

     total cpu time spent up to now is      315.5 secs

     total energy              =     -80.23876582 Ry
     estimated scf accuracy    <       0.00003889 Ry

     iteration #  9     ecut=    80.00 Ry     beta= 0.30
     Davidson diagonalization with overlap
     ethr =  2.43E-07,  avg # of iterations =  2.4

     total cpu time spent up to now is      328.1 secs

     total energy              =     -80.23877408 Ry
     estimated scf accuracy    <       0.00000070 Ry

     iteration # 10     ecut=    80.00 Ry     beta= 0.30
     Davidson diagonalization with overlap
     ethr =  4.38E-09,  avg # of iterations =  3.8

     total cpu time spent up to now is      342.0 secs

     total energy              =     -80.23877439 Ry
     estimated scf accuracy    <       0.00000004 Ry

     iteration # 11     ecut=    80.00 Ry     beta= 0.30
     Davidson diagonalization with overlap
     ethr =  2.54E-10,  avg # of iterations =  2.5

     total cpu time spent up to now is      355.1 secs

     total energy              =     -80.23877440 Ry
     estimated scf accuracy    <          2.5E-10 Ry

     iteration # 12     ecut=    80.00 Ry     beta= 0.30
     Davidson diagonalization with overlap
     ethr =  1.56E-12,  avg # of iterations =  3.9

     total cpu time spent up to now is      370.3 secs

     total energy              =     -80.23877440 Ry
     estimated scf accuracy    <          5.5E-10 Ry

     iteration # 13     ecut=    80.00 Ry     beta= 0.30
     Davidson diagonalization with overlap
     ethr =  1.56E-12,  avg # of iterations =  2.5

     total cpu time spent up to now is      383.8 secs

     End of self-consistent calculation

     Number of k-points >= 100: set verbosity='high' to print the bands.

     the Fermi energy is    12.2239 ev

!    total energy              =     -80.23877440 Ry
     estimated scf accuracy    <          1.6E-12 Ry
     smearing contrib. (-TS)   =      -0.00002450 Ry
     internal energy E=F+TS    =     -80.23874991 Ry

     The total energy is F=E-TS. E is the sum of the following terms:
     one-electron contribution =     -12.69187322 Ry
     hartree contribution      =      13.57431411 Ry
     xc contribution           =     -15.26509296 Ry
     ewald contribution        =     -65.85609784 Ry

     convergence has been achieved in  13 iterations

     Forces acting on atoms (cartesian axes, Ry/au):

     atom    1 type  1   force =    -0.00000000    0.00000000    0.00000000
     atom    2 type  2   force =     0.10002005   -0.01545124   -0.04581932
     atom    3 type  2   force =     0.01545123    0.04581932    0.10002001
     atom    4 type  2   force =     0.04581931    0.10002002   -0.01545124
     atom    5 type  2   force =    -0.10002005    0.01545124    0.04581932
     atom    6 type  2   force =    -0.01545123   -0.04581931   -0.10002001
     atom    7 type  2   force =    -0.04581931   -0.10002002    0.01545124

     Total force =     0.272127     Total SCF correction =     0.000000


     Computing stress (Cartesian axis) and pressure

          total   stress  (Ry/bohr**3)                   (kbar)     P=      820.78
   0.00557954   0.00007403  -0.00007403          820.78       10.89      -10.89
   0.00007403   0.00557953   0.00007403           10.89      820.78       10.89
  -0.00007403   0.00007403   0.00557954          -10.89       10.89      820.78

     Energy error            =      2.3E-01
     Gradient error          =      1.0E-01
     Cell gradient error     =      6.0E-03


     number of scf cycles    =   2
     number of bfgs steps    =   1

     enthalpy old            =     -77.8719411604 Ry
     enthalpy new            =     -78.0981655252 Ry

     CASE: enthalpy_new < enthalpy_old

     new trust radius        =       0.3068648904 bohr
     new conv_thr            =            1.0E-10 Ry

     new unit-cell volume =    147.07452 a.u.^3 (    21.79419 Ang^3 )
     density =      3.51442 g/cm^3

CELL_PARAMETERS (alat=  6.46400000)
   0.517353701   0.593118758   0.517353703
  -0.517353624   0.517353642   0.593118744
  -0.593118740  -0.517353673   0.517353658

ATOMIC_POSITIONS (crystal)
Ca            0.0000000007       -0.0000000008        0.0000000005
H             0.2975206636        0.4114900709       -0.0136657004
H             0.5885099254        0.0136657007        0.2975206633
H             0.0136656984        0.2975206627        0.4114900717
H             0.7024793354        0.5885099303        0.0136656997
H             0.4114900751       -0.0136657011        0.7024793368
H            -0.0136656986        0.7024793374        0.5885099283



     Writing output data file ./out/cah6.save/
     NEW-OLD atomic charge density approx. for the potential
     extrapolated charge   11.85020, renormalised to   16.00000

     total cpu time spent up to now is      388.3 secs

     Self-consistent Calculation

     iteration #  1     ecut=    80.00 Ry     beta= 0.30
     Davidson diagonalization with overlap
     c_bands:  1 eigenvalues not converged
     c_bands:  1 eigenvalues not converged
     c_bands:  1 eigenvalues not converged
     c_bands:  1 eigenvalues not converged
     c_bands:  1 eigenvalues not converged
     c_bands:  1 eigenvalues not converged
     c_bands:  1 eigenvalues not converged
     c_bands:  1 eigenvalues not converged
     c_bands:  1 eigenvalues not converged
     c_bands:  4 eigenvalues not converged
     c_bands:  1 eigenvalues not converged
     c_bands:  2 eigenvalues not converged
     c_bands:  2 eigenvalues not converged
     c_bands:  2 eigenvalues not converged
     c_bands:  2 eigenvalues not converged
     c_bands:  1 eigenvalues not converged
     c_bands:  1 eigenvalues not converged
     c_bands:  1 eigenvalues not converged
     c_bands:  1 eigenvalues not converged
     c_bands:  1 eigenvalues not converged
     c_bands:  1 eigenvalues not converged
     c_bands:  1 eigenvalues not converged
     c_bands:  1 eigenvalues not converged
     c_bands:  1 eigenvalues not converged
     c_bands:  1 eigenvalues not converged
     c_bands:  1 eigenvalues not converged
     c_bands:  1 eigenvalues not converged
     c_bands:  1 eigenvalues not converged
     c_bands:  1 eigenvalues not converged
     c_bands:  1 eigenvalues not converged
     c_bands:  1 eigenvalues not converged
     c_bands:  1 eigenvalues not converged
     c_bands:  1 eigenvalues not converged
     c_bands:  1 eigenvalues not converged
     c_bands:  2 eigenvalues not converged
     c_bands:  1 eigenvalues not converged
     c_bands:  3 eigenvalues not converged
     c_bands:  1 eigenvalues not converged
     c_bands:  1 eigenvalues not converged
     c_bands:  1 eigenvalues not converged
     c_bands:  3 eigenvalues not converged
     c_bands:  1 eigenvalues not converged
     c_bands:  1 eigenvalues not converged
     c_bands:  2 eigenvalues not converged
     c_bands:  1 eigenvalues not converged
     c_bands:  1 eigenvalues not converged
     c_bands:  5 eigenvalues not converged
     c_bands:  1 eigenvalues not converged
     c_bands:  1 eigenvalues not converged
     c_bands:  1 eigenvalues not converged
     c_bands:  2 eigenvalues not converged
     c_bands:  2 eigenvalues not converged
     c_bands:  1 eigenvalues not converged
     c_bands:  2 eigenvalues not converged
     c_bands:  3 eigenvalues not converged
     c_bands:  2 eigenvalues not converged
     c_bands:  1 eigenvalues not converged
     c_bands:  1 eigenvalues not converged
     c_bands:  2 eigenvalues not converged
     c_bands:  1 eigenvalues not converged
     c_bands:  1 eigenvalues not converged
     c_bands:  1 eigenvalues not converged
     c_bands:  3 eigenvalues not converged
     c_bands:  1 eigenvalues not converged
     c_bands:  1 eigenvalues not converged
     c_bands:  1 eigenvalues not converged
     c_bands:  1 eigenvalues not converged
     c_bands:  1 eigenvalues not converged
     c_bands:  1 eigenvalues not converged
     c_bands:  1 eigenvalues not converged
     c_bands:  1 eigenvalues not converged
     c_bands:  1 eigenvalues not converged
     c_bands:  1 eigenvalues not converged
     c_bands:  1 eigenvalues not converged
     c_bands:  1 eigenvalues not converged
     c_bands:  1 eigenvalues not converged
     c_bands:  1 eigenvalues not converged
     c_bands:  1 eigenvalues not converged
     c_bands:  1 eigenvalues not converged
     c_bands:  1 eigenvalues not converged
     c_bands:  1 eigenvalues not converged
     c_bands:  1 eigenvalues not converged
     c_bands:  1 eigenvalues not converged
     c_bands:  1 eigenvalues not converged
     c_bands:  1 eigenvalues not converged
     c_bands:  1 eigenvalues not converged
     c_bands:  1 eigenvalues not converged
     c_bands:  1 eigenvalues not converged
     c_bands:  1 eigenvalues not converged
     c_bands:  2 eigenvalues not converged
     c_bands:  3 eigenvalues not converged
     c_bands:  2 eigenvalues not converged
     c_bands:  1 eigenvalues not converged
     c_bands:  3 eigenvalues not converged
     c_bands:  1 eigenvalues not converged
     c_bands:  1 eigenvalues not converged
     c_bands:  2 eigenvalues not converged
     c_bands:  1 eigenvalues not converged
     c_bands:  1 eigenvalues not converged
     c_bands:  1 eigenvalues not converged
     c_bands:  1 eigenvalues not converged
     c_bands:  1 eigenvalues not converged
     c_bands:  2 eigenvalues not converged
     c_bands:  1 eigenvalues not converged
     c_bands:  1 eigenvalues not converged
     c_bands:  1 eigenvalues not converged
     c_bands:  1 eigenvalues not converged
     c_bands:  1 eigenvalues not converged
     c_bands:  2 eigenvalues not converged
     c_bands:  1 eigenvalues not converged
     c_bands:  1 eigenvalues not converged
     c_bands:  4 eigenvalues not converged
     c_bands:  1 eigenvalues not converged
     c_bands:  1 eigenvalues not converged
     c_bands:  1 eigenvalues not converged
     c_bands:  1 eigenvalues not converged
     c_bands:  1 eigenvalues not converged
     c_bands:  1 eigenvalues not converged
     c_bands:  1 eigenvalues not converged
     c_bands:  1 eigenvalues not converged
     c_bands:  2 eigenvalues not converged
     c_bands:  1 eigenvalues not converged
     c_bands:  2 eigenvalues not converged
     c_bands:  1 eigenvalues not converged
     c_bands:  1 eigenvalues not converged
     c_bands:  2 eigenvalues not converged
     c_bands:  1 eigenvalues not converged
     c_bands:  1 eigenvalues not converged
     c_bands:  1 eigenvalues not converged
     c_bands:  1 eigenvalues not converged
     c_bands:  1 eigenvalues not converged
     c_bands:  1 eigenvalues not converged
     c_bands:  1 eigenvalues not converged
     c_bands:  1 eigenvalues not converged
     c_bands:  1 eigenvalues not converged
     c_bands:  1 eigenvalues not converged
     c_bands:  1 eigenvalues not converged
     c_bands:  1 eigenvalues not converged
     c_bands:  2 eigenvalues not converged
     c_bands:  1 eigenvalues not converged
     c_bands:  2 eigenvalues not converged
     c_bands:  2 eigenvalues not converged
     c_bands:  1 eigenvalues not converged
     c_bands:  2 eigenvalues not converged
     c_bands:  1 eigenvalues not converged
     c_bands:  1 eigenvalues not converged
     c_bands:  1 eigenvalues not converged
     c_bands:  1 eigenvalues not converged
     c_bands:  2 eigenvalues not converged
     c_bands:  1 eigenvalues not converged
     c_bands:  1 eigenvalues not converged
     c_bands:  2 eigenvalues not converged
     c_bands:  1 eigenvalues not converged
     c_bands:  1 eigenvalues not converged
     c_bands:  1 eigenvalues not converged
     c_bands:  2 eigenvalues not converged
     c_bands:  2 eigenvalues not converged
     c_bands:  1 eigenvalues not converged
     c_bands:  1 eigenvalues not converged
     c_bands:  1 eigenvalues not converged
     c_bands:  2 eigenvalues not converged
     c_bands:  2 eigenvalues not converged
     c_bands:  1 eigenvalues not converged
     c_bands:  1 eigenvalues not converged
     c_bands:  4 eigenvalues not converged
     c_bands:  2 eigenvalues not converged
     c_bands:  1 eigenvalues not converged
     c_bands:  1 eigenvalues not converged
     c_bands:  1 eigenvalues not converged
     c_bands:  3 eigenvalues not converged
     c_bands:  1 eigenvalues not converged
     c_bands:  2 eigenvalues not converged
     c_bands:  1 eigenvalues not converged
     c_bands:  4 eigenvalues not converged
     c_bands:  1 eigenvalues not converged
     c_bands:  5 eigenvalues not converged
     c_bands:  3 eigenvalues not converged
     c_bands:  1 eigenvalues not converged
     c_bands:  2 eigenvalues not converged
     c_bands:  2 eigenvalues not converged
     c_bands:  1 eigenvalues not converged
     c_bands:  1 eigenvalues not converged
     c_bands:  1 eigenvalues not converged
     c_bands:  1 eigenvalues not converged
     c_bands:  1 eigenvalues not converged
     c_bands:  4 eigenvalues not converged
     c_bands:  1 eigenvalues not converged
     c_bands:  1 eigenvalues not converged
     c_bands:  1 eigenvalues not converged
     c_bands:  3 eigenvalues not converged
     c_bands:  1 eigenvalues not converged
     c_bands:  1 eigenvalues not converged
     c_bands:  1 eigenvalues not converged
     c_bands:  1 eigenvalues not converged
     c_bands:  1 eigenvalues not converged
     c_bands:  2 eigenvalues not converged
     c_bands:  2 eigenvalues not converged
     c_bands:  2 eigenvalues not converged
     c_bands:  1 eigenvalues not converged
     c_bands:  1 eigenvalues not converged
     c_bands:  1 eigenvalues not converged
     c_bands:  2 eigenvalues not converged
     c_bands:  1 eigenvalues not converged
     c_bands:  2 eigenvalues not converged
     c_bands:  2 eigenvalues not converged
     c_bands:  1 eigenvalues not converged
     c_bands:  3 eigenvalues not converged
     c_bands:  1 eigenvalues not converged
     c_bands:  1 eigenvalues not converged
     c_bands:  2 eigenvalues not converged
     c_bands:  2 eigenvalues not converged
     c_bands:  1 eigenvalues not converged
     c_bands:  5 eigenvalues not converged
     c_bands:  5 eigenvalues not converged
     c_bands:  4 eigenvalues not converged
     c_bands:  1 eigenvalues not converged
     c_bands:  1 eigenvalues not converged
     c_bands:  3 eigenvalues not converged
     c_bands:  1 eigenvalues not converged
     c_bands:  1 eigenvalues not converged
     c_bands:  2 eigenvalues not converged
     c_bands:  2 eigenvalues not converged
     c_bands:  5 eigenvalues not converged
     c_bands:  5 eigenvalues not converged
     c_bands:  1 eigenvalues not converged
     c_bands:  2 eigenvalues not converged
     c_bands:  3 eigenvalues not converged
     c_bands:  1 eigenvalues not converged
     c_bands:  5 eigenvalues not converged
     c_bands:  5 eigenvalues not converged
     c_bands:  1 eigenvalues not converged
     c_bands:  1 eigenvalues not converged
     c_bands:  2 eigenvalues not converged
     c_bands:  2 eigenvalues not converged
     c_bands:  1 eigenvalues not converged
     c_bands:  1 eigenvalues not converged
     c_bands:  1 eigenvalues not converged
     c_bands:  1 eigenvalues not converged
     c_bands:  4 eigenvalues not converged
     c_bands:  1 eigenvalues not converged
     c_bands:  1 eigenvalues not converged
     c_bands:  2 eigenvalues not converged
     c_bands:  1 eigenvalues not converged
     c_bands:  1 eigenvalues not converged
     c_bands:  2 eigenvalues not converged
     c_bands:  3 eigenvalues not converged
     c_bands:  2 eigenvalues not converged
     c_bands:  3 eigenvalues not converged
     c_bands:  2 eigenvalues not converged
     c_bands:  1 eigenvalues not converged
     c_bands:  1 eigenvalues not converged
     c_bands:  2 eigenvalues not converged
     c_bands:  1 eigenvalues not converged
     c_bands:  2 eigenvalues not converged
     c_bands:  2 eigenvalues not converged
     c_bands:  2 eigenvalues not converged
     c_bands:  1 eigenvalues not converged
     c_bands:  2 eigenvalues not converged
     c_bands:  4 eigenvalues not converged
     c_bands:  2 eigenvalues not converged
     c_bands:  1 eigenvalues not converged
     c_bands:  3 eigenvalues not converged
     c_bands:  1 eigenvalues not converged
     c_bands:  5 eigenvalues not converged
     c_bands:  1 eigenvalues not converged
     c_bands:  1 eigenvalues not converged
     c_bands:  1 eigenvalues not converged
     c_bands:  1 eigenvalues not converged
     c_bands:  2 eigenvalues not converged
     c_bands:  2 eigenvalues not converged
     c_bands:  3 eigenvalues not converged
     c_bands:  4 eigenvalues not converged
     c_bands:  2 eigenvalues not converged
     c_bands:  2 eigenvalues not converged
     c_bands:  5 eigenvalues not converged
     c_bands:  4 eigenvalues not converged
     c_bands:  2 eigenvalues not converged
     c_bands:  1 eigenvalues not converged
     c_bands:  1 eigenvalues not converged
     c_bands:  1 eigenvalues not converged
     c_bands:  1 eigenvalues not converged
     c_bands:  1 eigenvalues not converged
     c_bands:  2 eigenvalues not converged
     c_bands:  1 eigenvalues not converged
     c_bands:  1 eigenvalues not converged
     c_bands:  1 eigenvalues not converged
     c_bands:  1 eigenvalues not converged
     c_bands:  1 eigenvalues not converged
     c_bands:  3 eigenvalues not converged
     c_bands:  2 eigenvalues not converged
     c_bands:  1 eigenvalues not converged
     c_bands:  2 eigenvalues not converged
     c_bands:  1 eigenvalues not converged
     c_bands:  1 eigenvalues not converged
     c_bands:  1 eigenvalues not converged
     c_bands:  1 eigenvalues not converged
     c_bands:  3 eigenvalues not converged
     c_bands:  1 eigenvalues not converged
     c_bands:  2 eigenvalues not converged
     c_bands:  2 eigenvalues not converged
     c_bands:  1 eigenvalues not converged
     c_bands:  1 eigenvalues not converged
     c_bands:  1 eigenvalues not converged
     c_bands:  1 eigenvalues not converged
     c_bands:  1 eigenvalues not converged
     c_bands:  1 eigenvalues not converged
     c_bands:  1 eigenvalues not converged
     c_bands:  1 eigenvalues not converged
     c_bands:  1 eigenvalues not converged
     c_bands:  1 eigenvalues not converged
     c_bands:  2 eigenvalues not converged
     c_bands:  1 eigenvalues not converged
     c_bands:  1 eigenvalues not converged
     c_bands:  2 eigenvalues not converged
     c_bands:  2 eigenvalues not converged
     c_bands:  1 eigenvalues not converged
     c_bands:  4 eigenvalues not converged
     c_bands:  1 eigenvalues not converged
     c_bands:  1 eigenvalues not converged
     c_bands:  1 eigenvalues not converged
     c_bands:  2 eigenvalues not converged
     c_bands:  2 eigenvalues not converged
     c_bands:  1 eigenvalues not converged
     c_bands:  1 eigenvalues not converged
     c_bands:  1 eigenvalues not converged
     c_bands:  2 eigenvalues not converged
     c_bands:  1 eigenvalues not converged
     c_bands:  1 eigenvalues not converged
     c_bands:  1 eigenvalues not converged
     c_bands:  2 eigenvalues not converged
     c_bands:  2 eigenvalues not converged
     c_bands:  1 eigenvalues not converged
     c_bands:  4 eigenvalues not converged
     c_bands:  1 eigenvalues not converged
     c_bands:  2 eigenvalues not converged
     c_bands:  1 eigenvalues not converged
     c_bands:  4 eigenvalues not converged
     c_bands:  2 eigenvalues not converged
     c_bands:  5 eigenvalues not converged
     c_bands:  5 eigenvalues not converged
     c_bands:  1 eigenvalues not converged
     c_bands:  1 eigenvalues not converged
     c_bands:  3 eigenvalues not converged
     c_bands:  1 eigenvalues not converged
     c_bands:  2 eigenvalues not converged
     c_bands:  5 eigenvalues not converged
     c_bands:  1 eigenvalues not converged
     c_bands:  1 eigenvalues not converged
     c_bands:  1 eigenvalues not converged
     c_bands:  1 eigenvalues not converged
     c_bands:  1 eigenvalues not converged
     c_bands:  1 eigenvalues not converged
     c_bands:  1 eigenvalues not converged
     c_bands:  1 eigenvalues not converged
     c_bands:  1 eigenvalues not converged
     c_bands:  1 eigenvalues not converged
     c_bands:  3 eigenvalues not converged
     c_bands:  1 eigenvalues not converged
     c_bands:  1 eigenvalues not converged
     c_bands:  1 eigenvalues not converged
     c_bands:  1 eigenvalues not converged
     c_bands:  2 eigenvalues not converged
     c_bands:  1 eigenvalues not converged
     c_bands:  1 eigenvalues not converged
     c_bands:  2 eigenvalues not converged
     c_bands:  2 eigenvalues not converged
     c_bands:  1 eigenvalues not converged
     c_bands:  1 eigenvalues not converged
     c_bands:  1 eigenvalues not converged
     c_bands:  1 eigenvalues not converged
     c_bands:  1 eigenvalues not converged
     c_bands:  2 eigenvalues not converged
     c_bands:  2 eigenvalues not converged
     c_bands:  1 eigenvalues not converged
     c_bands:  1 eigenvalues not converged
     c_bands:  1 eigenvalues not converged
     c_bands:  2 eigenvalues not converged
     c_bands:  2 eigenvalues not converged
     c_bands:  1 eigenvalues not converged
     c_bands:  1 eigenvalues not converged
     c_bands:  1 eigenvalues not converged
     c_bands:  1 eigenvalues not converged
     c_bands:  1 eigenvalues not converged
     c_bands:  1 eigenvalues not converged
     c_bands:  2 eigenvalues not converged
     c_bands:  2 eigenvalues not converged
     c_bands:  1 eigenvalues not converged
     c_bands:  2 eigenvalues not converged
     c_bands:  2 eigenvalues not converged
     c_bands:  1 eigenvalues not converged
     c_bands:  1 eigenvalues not converged
     c_bands:  1 eigenvalues not converged
     c_bands:  1 eigenvalues not converged
     c_bands:  1 eigenvalues not converged
     c_bands:  3 eigenvalues not converged
     c_bands:  4 eigenvalues not converged
     c_bands:  1 eigenvalues not converged
     c_bands:  2 eigenvalues not converged
     c_bands:  2 eigenvalues not converged
     c_bands:  1 eigenvalues not converged
     c_bands:  2 eigenvalues not converged
     c_bands:  1 eigenvalues not converged
     c_bands:  1 eigenvalues not converged
     c_bands:  1 eigenvalues not converged
     c_bands:  1 eigenvalues not converged
     c_bands:  1 eigenvalues not converged
     c_bands:  1 eigenvalues not converged
     c_bands:  1 eigenvalues not converged
     c_bands:  1 eigenvalues not converged
     c_bands:  2 eigenvalues not converged
     c_bands:  2 eigenvalues not converged
     c_bands:  1 eigenvalues not converged
     c_bands:  2 eigenvalues not converged
     c_bands:  1 eigenvalues not converged
     c_bands:  1 eigenvalues not converged
     c_bands:  1 eigenvalues not converged
     c_bands:  2 eigenvalues not converged
     c_bands:  5 eigenvalues not converged
     c_bands:  2 eigenvalues not converged
     c_bands:  1 eigenvalues not converged
     c_bands:  1 eigenvalues not converged
     c_bands:  1 eigenvalues not converged
     c_bands:  1 eigenvalues not converged
     c_bands:  2 eigenvalues not converged
     c_bands:  2 eigenvalues not converged
     c_bands:  1 eigenvalues not converged
     c_bands:  1 eigenvalues not converged
     c_bands:  2 eigenvalues not converged
     c_bands:  2 eigenvalues not converged
     c_bands:  1 eigenvalues not converged
     c_bands:  2 eigenvalues not converged
     c_bands:  4 eigenvalues not converged
     c_bands:  2 eigenvalues not converged
     c_bands:  2 eigenvalues not converged
     c_bands:  1 eigenvalues not converged
     c_bands:  2 eigenvalues not converged
     c_bands:  1 eigenvalues not converged
     c_bands:  5 eigenvalues not converged
     c_bands:  2 eigenvalues not converged
     ethr =  1.00E-06,  avg # of iterations = 16.9

     total cpu time spent up to now is      443.0 secs

     total energy              =     -77.63703199 Ry
     estimated scf accuracy    <       2.96042390 Ry

     iteration #  2     ecut=    80.00 Ry     beta= 0.30
     Davidson diagonalization with overlap
     ethr =  1.00E-02,  avg # of iterations =  3.6

     total cpu time spent up to now is      459.5 secs

     total energy              =     -80.11949442 Ry
     estimated scf accuracy    <       0.59438646 Ry

     iteration #  3     ecut=    80.00 Ry     beta= 0.30
     Davidson diagonalization with overlap
     ethr =  3.71E-03,  avg # of iterations =  1.4

     total cpu time spent up to now is      469.7 secs

     total energy              =     -79.95515846 Ry
     estimated scf accuracy    <       0.23816316 Ry

     iteration #  4     ecut=    80.00 Ry     beta= 0.30
     Davidson diagonalization with overlap
     ethr =  1.49E-03,  avg # of iterations =  2.6

     total cpu time spent up to now is      484.6 secs

     total energy              =     -80.03832960 Ry
     estimated scf accuracy    <       0.04146657 Ry

     iteration #  5     ecut=    80.00 Ry     beta= 0.30
     Davidson diagonalization with overlap
     ethr =  2.59E-04,  avg # of iterations =  2.5

     total cpu time spent up to now is      495.9 secs

     total energy              =     -80.04382806 Ry
     estimated scf accuracy    <       0.00250247 Ry

     iteration #  6     ecut=    80.00 Ry     beta= 0.30
     Davidson diagonalization with overlap
     ethr =  1.56E-05,  avg # of iterations =  4.8

     total cpu time spent up to now is      509.5 secs

     total energy              =     -80.04380765 Ry
     estimated scf accuracy    <       0.00047461 Ry

     iteration #  7     ecut=    80.00 Ry     beta= 0.30
     Davidson diagonalization with overlap
     ethr =  2.97E-06,  avg # of iterations =  3.1

     total cpu time spent up to now is      522.4 secs

     total energy              =     -80.04385877 Ry
     estimated scf accuracy    <       0.00003314 Ry

     iteration #  8     ecut=    80.00 Ry     beta= 0.30
     Davidson diagonalization with overlap
     ethr =  2.07E-07,  avg # of iterations =  3.3

     total cpu time spent up to now is      536.6 secs

     total energy              =     -80.04387467 Ry
     estimated scf accuracy    <       0.00000818 Ry

     iteration #  9     ecut=    80.00 Ry     beta= 0.30
     Davidson diagonalization with overlap
     ethr =  5.11E-08,  avg # of iterations =  1.2

     total cpu time spent up to now is      546.6 secs

     total energy              =     -80.04387433 Ry
     estimated scf accuracy    <       0.00000170 Ry

     iteration # 10     ecut=    80.00 Ry     beta= 0.30
     Davidson diagonalization with overlap
     ethr =  1.06E-08,  avg # of iterations =  2.4

     total cpu time spent up to now is      558.6 secs

     total energy              =     -80.04387468 Ry
     estimated scf accuracy    <       0.00000002 Ry

     iteration # 11     ecut=    80.00 Ry     beta= 0.30
     Davidson diagonalization with overlap
     ethr =  1.48E-10,  avg # of iterations =  3.7

     total cpu time spent up to now is      573.3 secs

     total energy              =     -80.04387470 Ry
     estimated scf accuracy    <          3.3E-09 Ry

     iteration # 12     ecut=    80.00 Ry     beta= 0.30
     Davidson diagonalization with overlap
     ethr =  2.08E-11,  avg # of iterations =  1.6

     total cpu time spent up to now is      583.7 secs

     total energy              =     -80.04387470 Ry
     estimated scf accuracy    <          4.2E-10 Ry

     iteration # 13     ecut=    80.00 Ry     beta= 0.30
     Davidson diagonalization with overlap
     ethr =  2.61E-12,  avg # of iterations =  2.3

     total cpu time spent up to now is      594.8 secs

     total energy              =     -80.04387470 Ry
     estimated scf accuracy    <          1.4E-10 Ry

     iteration # 14     ecut=    80.00 Ry     beta= 0.30
     Davidson diagonalization with overlap
     ethr =  8.79E-13,  avg # of iterations =  1.6

     total cpu time spent up to now is      605.2 secs

     End of self-consistent calculation

     Number of k-points >= 100: set verbosity='high' to print the bands.

     the Fermi energy is    16.9714 ev

!    total energy              =     -80.04387470 Ry
     estimated scf accuracy    <          7.2E-11 Ry
     smearing contrib. (-TS)   =       0.00000686 Ry
     internal energy E=F+TS    =     -80.04388156 Ry

     The total energy is F=E-TS. E is the sum of the following terms:
     one-electron contribution =      -3.97098772 Ry
     hartree contribution      =      11.27457302 Ry
     xc contribution           =     -15.79483545 Ry
     ewald contribution        =     -71.55263140 Ry

     convergence has been achieved in  14 iterations

     Forces acting on atoms (cartesian axes, Ry/au):

     atom    1 type  1   force =    -0.00000000    0.00000000    0.00000000
     atom    2 type  2   force =     0.03652487    0.00587289    0.00395011
     atom    3 type  2   force =    -0.00587287   -0.00395015    0.03652486
     atom    4 type  2   force =    -0.00395012    0.03652485    0.00587288
     atom    5 type  2   force =    -0.03652486   -0.00587289   -0.00395011
     atom    6 type  2   force =     0.00587287    0.00395015   -0.03652486
     atom    7 type  2   force =     0.00395012   -0.03652485   -0.00587288

     Total force =     0.091132     Total SCF correction =     0.000001


     Computing stress (Cartesian axis) and pressure

          total   stress  (Ry/bohr**3)                   (kbar)     P=     1594.62
   0.01084002  -0.00192419   0.00192419         1594.62     -283.06      283.06
  -0.00192419   0.01084002  -0.00192419         -283.06     1594.62     -283.06
   0.00192419  -0.00192419   0.01084002          283.06     -283.06     1594.62

     Energy error            =      2.5E-01
     Gradient error          =      3.7E-02
     Cell gradient error     =      1.9E-03


     number of scf cycles    =   3
     number of bfgs steps    =   2

     enthalpy old            =     -78.0981655252 Ry
     enthalpy new            =     -78.3442278720 Ry

     CASE: enthalpy_new < enthalpy_old

     new trust radius        =       0.1670307129 bohr
     new conv_thr            =            1.0E-10 Ry

     new unit-cell volume =    140.86516 a.u.^3 (    20.87406 Ang^3 )
     density =      3.66934 g/cm^3

CELL_PARAMETERS (alat=  6.46400000)
   0.507502850   0.536378463   0.507502834
  -0.507502791   0.507502776   0.536378458
  -0.536378474  -0.507502813   0.507502813

ATOMIC_POSITIONS (crystal)
Ca            0.0000000007       -0.0000000007        0.0000000007
H             0.3087292400        0.3974849485       -0.0164958686
H             0.6025150483        0.0164958599        0.3087292422
H             0.0164958636        0.3087292367        0.3974849511
H             0.6912707593        0.6025150521        0.0164958680
H             0.3974849520       -0.0164958601        0.6912707577
H            -0.0164958639        0.6912707635        0.6025150488



     Writing output data file ./out/cah6.save/
     NEW-OLD atomic charge density approx. for the potential
     extrapolated charge   15.29494, renormalised to   16.00000

     total cpu time spent up to now is      609.8 secs

     Self-consistent Calculation

     iteration #  1     ecut=    80.00 Ry     beta= 0.30
     Davidson diagonalization with overlap
     c_bands:  1 eigenvalues not converged
     c_bands:  1 eigenvalues not converged
     c_bands:  1 eigenvalues not converged
     c_bands:  1 eigenvalues not converged
     c_bands:  1 eigenvalues not converged
     c_bands:  1 eigenvalues not converged
     c_bands:  1 eigenvalues not converged
     c_bands:  1 eigenvalues not converged
     c_bands:  1 eigenvalues not converged
     c_bands:  1 eigenvalues not converged
     c_bands:  1 eigenvalues not converged
     c_bands:  1 eigenvalues not converged
     c_bands:  1 eigenvalues not converged
     c_bands:  1 eigenvalues not converged
     c_bands:  1 eigenvalues not converged
     c_bands:  1 eigenvalues not converged
     c_bands:  1 eigenvalues not converged
     c_bands:  1 eigenvalues not converged
     c_bands:  1 eigenvalues not converged
     c_bands:  1 eigenvalues not converged
     c_bands:  1 eigenvalues not converged
     c_bands:  1 eigenvalues not converged
     c_bands:  1 eigenvalues not converged
     c_bands:  1 eigenvalues not converged
     c_bands:  1 eigenvalues not converged
     c_bands:  1 eigenvalues not converged
     c_bands:  1 eigenvalues not converged
     c_bands:  1 eigenvalues not converged
     c_bands:  1 eigenvalues not converged
     c_bands:  1 eigenvalues not converged
     c_bands:  1 eigenvalues not converged
     c_bands:  1 eigenvalues not converged
     c_bands:  1 eigenvalues not converged
     c_bands:  1 eigenvalues not converged
     c_bands:  1 eigenvalues not converged
     c_bands:  1 eigenvalues not converged
     c_bands:  1 eigenvalues not converged
     c_bands:  1 eigenvalues not converged
     c_bands:  1 eigenvalues not converged
     c_bands:  1 eigenvalues not converged
     c_bands:  1 eigenvalues not converged
     c_bands:  1 eigenvalues not converged
     c_bands:  1 eigenvalues not converged
     c_bands:  1 eigenvalues not converged
     c_bands:  1 eigenvalues not converged
     c_bands:  1 eigenvalues not converged
     c_bands:  1 eigenvalues not converged
     c_bands:  1 eigenvalues not converged
     c_bands:  1 eigenvalues not converged
     c_bands:  1 eigenvalues not converged
     c_bands:  1 eigenvalues not converged
     c_bands:  1 eigenvalues not converged
     c_bands:  1 eigenvalues not converged
     c_bands:  1 eigenvalues not converged
     c_bands:  1 eigenvalues not converged
     c_bands:  1 eigenvalues not converged
     c_bands:  1 eigenvalues not converged
     c_bands:  1 eigenvalues not converged
     c_bands:  1 eigenvalues not converged
     c_bands:  1 eigenvalues not converged
     c_bands:  1 eigenvalues not converged
     c_bands:  1 eigenvalues not converged
     c_bands:  1 eigenvalues not converged
     c_bands:  1 eigenvalues not converged
     c_bands:  1 eigenvalues not converged
     c_bands:  1 eigenvalues not converged
     c_bands:  1 eigenvalues not converged
     c_bands:  1 eigenvalues not converged
     c_bands:  1 eigenvalues not converged
     c_bands:  1 eigenvalues not converged
     c_bands:  1 eigenvalues not converged
     c_bands:  1 eigenvalues not converged
     c_bands:  1 eigenvalues not converged
     c_bands:  1 eigenvalues not converged
     c_bands:  1 eigenvalues not converged
     c_bands:  1 eigenvalues not converged
     c_bands:  1 eigenvalues not converged
     c_bands:  1 eigenvalues not converged
     c_bands:  1 eigenvalues not converged
     c_bands:  1 eigenvalues not converged
     c_bands:  1 eigenvalues not converged
     c_bands:  1 eigenvalues not converged
     c_bands:  1 eigenvalues not converged
     c_bands:  1 eigenvalues not converged
     c_bands:  1 eigenvalues not converged
     c_bands:  1 eigenvalues not converged
     c_bands:  1 eigenvalues not converged
     c_bands:  1 eigenvalues not converged
     c_bands:  1 eigenvalues not converged
     c_bands:  1 eigenvalues not converged
     c_bands:  1 eigenvalues not converged
     c_bands:  1 eigenvalues not converged
     c_bands:  1 eigenvalues not converged
     c_bands:  1 eigenvalues not converged
     c_bands:  1 eigenvalues not converged
     c_bands:  1 eigenvalues not converged
     c_bands:  1 eigenvalues not converged
     c_bands:  1 eigenvalues not converged
     c_bands:  1 eigenvalues not converged
     c_bands:  1 eigenvalues not converged
     c_bands:  1 eigenvalues not converged
     c_bands:  1 eigenvalues not converged
     c_bands:  1 eigenvalues not converged
     c_bands:  1 eigenvalues not converged
     c_bands:  1 eigenvalues not converged
     c_bands:  1 eigenvalues not converged
     c_bands:  1 eigenvalues not converged
     c_bands:  1 eigenvalues not converged
     c_bands:  1 eigenvalues not converged
     c_bands:  1 eigenvalues not converged
     c_bands:  1 eigenvalues not converged
     c_bands:  1 eigenvalues not converged
     c_bands:  1 eigenvalues not converged
     c_bands:  1 eigenvalues not converged
     c_bands:  1 eigenvalues not converged
     c_bands:  1 eigenvalues not converged
     c_bands:  1 eigenvalues not converged
     c_bands:  1 eigenvalues not converged
     c_bands:  1 eigenvalues not converged
     c_bands:  1 eigenvalues not converged
     c_bands:  1 eigenvalues not converged
     c_bands:  1 eigenvalues not converged
     c_bands:  1 eigenvalues not converged
     c_bands:  1 eigenvalues not converged
     c_bands:  1 eigenvalues not converged
     c_bands:  1 eigenvalues not converged
     c_bands:  1 eigenvalues not converged
     c_bands:  1 eigenvalues not converged
     c_bands:  1 eigenvalues not converged
     c_bands:  1 eigenvalues not converged
     c_bands:  1 eigenvalues not converged
     c_bands:  1 eigenvalues not converged
     c_bands:  1 eigenvalues not converged
     c_bands:  1 eigenvalues not converged
     c_bands:  1 eigenvalues not converged
     ethr =  1.00E-06,  avg # of iterations = 13.3

     total cpu time spent up to now is      651.3 secs

     total energy              =     -80.01347417 Ry
     estimated scf accuracy    <       0.02431362 Ry

     iteration #  2     ecut=    80.00 Ry     beta= 0.30
     Davidson diagonalization with overlap
     ethr =  1.52E-04,  avg # of iterations =  3.7

     total cpu time spent up to now is      667.9 secs

     total energy              =     -80.04309864 Ry
     estimated scf accuracy    <       0.01105755 Ry

     iteration #  3     ecut=    80.00 Ry     beta= 0.30
     Davidson diagonalization with overlap
     ethr =  6.91E-05,  avg # of iterations =  1.1

     total cpu time spent up to now is      677.7 secs

     total energy              =     -80.04001959 Ry
     estimated scf accuracy    <       0.00535362 Ry

     iteration #  4     ecut=    80.00 Ry     beta= 0.30
     Davidson diagonalization with overlap
     ethr =  3.35E-05,  avg # of iterations =  2.5

     total cpu time spent up to now is      692.4 secs

     total energy              =     -80.04133213 Ry
     estimated scf accuracy    <       0.00102024 Ry

     iteration #  5     ecut=    80.00 Ry     beta= 0.30
     Davidson diagonalization with overlap
     ethr =  6.38E-06,  avg # of iterations =  3.1

     total cpu time spent up to now is      707.5 secs

     total energy              =     -80.04162908 Ry
     estimated scf accuracy    <       0.00034275 Ry

     iteration #  6     ecut=    80.00 Ry     beta= 0.30
     Davidson diagonalization with overlap
     c_bands:  1 eigenvalues not converged
     c_bands:  1 eigenvalues not converged
     c_bands:  1 eigenvalues not converged
     ethr =  2.14E-06,  avg # of iterations =  2.8

     total cpu time spent up to now is      720.2 secs

     total energy              =     -80.04169576 Ry
     estimated scf accuracy    <       0.00000077 Ry

     iteration #  7     ecut=    80.00 Ry     beta= 0.30
     Davidson diagonalization with overlap
     ethr =  4.82E-09,  avg # of iterations =  4.2

     total cpu time spent up to now is      736.3 secs

     total energy              =     -80.04169758 Ry
     estimated scf accuracy    <       0.00000070 Ry

     iteration #  8     ecut=    80.00 Ry     beta= 0.30
     Davidson diagonalization with overlap
     ethr =  4.39E-09,  avg # of iterations =  1.0

     total cpu time spent up to now is      746.1 secs

     total energy              =     -80.04169757 Ry
     estimated scf accuracy    <       0.00000026 Ry

     iteration #  9     ecut=    80.00 Ry     beta= 0.30
     Davidson diagonalization with overlap
     ethr =  1.64E-09,  avg # of iterations =  1.1

     total cpu time spent up to now is      755.9 secs

     total energy              =     -80.04169747 Ry
     estimated scf accuracy    <       0.00000018 Ry

     iteration # 10     ecut=    80.00 Ry     beta= 0.30
     Davidson diagonalization with overlap
     ethr =  1.10E-09,  avg # of iterations =  2.4

     total cpu time spent up to now is      768.4 secs

     total energy              =     -80.04169751 Ry
     estimated scf accuracy    <          2.3E-10 Ry

     iteration # 11     ecut=    80.00 Ry     beta= 0.30
     Davidson diagonalization with overlap
     ethr =  1.43E-12,  avg # of iterations =  4.9

     total cpu time spent up to now is      786.3 secs

     total energy              =     -80.04169751 Ry
     estimated scf accuracy    <          1.8E-09 Ry

     iteration # 12     ecut=    80.00 Ry     beta= 0.30
     Davidson diagonalization with overlap
     ethr =  1.43E-12,  avg # of iterations =  3.1

     total cpu time spent up to now is      800.3 secs

     total energy              =     -80.04169751 Ry
     estimated scf accuracy    <          1.0E-10 Ry

     iteration # 13     ecut=    80.00 Ry     beta= 0.30
     Davidson diagonalization with overlap
     ethr =  6.26E-13,  avg # of iterations =  2.0

     total cpu time spent up to now is      811.6 secs

     End of self-consistent calculation

     Number of k-points >= 100: set verbosity='high' to print the bands.

     the Fermi energy is    17.1464 ev

!    total energy              =     -80.04169751 Ry
     estimated scf accuracy    <          6.8E-12 Ry
     smearing contrib. (-TS)   =      -0.00001964 Ry
     internal energy E=F+TS    =     -80.04167787 Ry

     The total energy is F=E-TS. E is the sum of the following terms:
     one-electron contribution =      -2.74403948 Ry
     hartree contribution      =      11.08995034 Ry
     xc contribution           =     -15.87461378 Ry
     ewald contribution        =     -72.51297495 Ry

     convergence has been achieved in  13 iterations

     Forces acting on atoms (cartesian axes, Ry/au):

     atom    1 type  1   force =    -0.00000000    0.00000000   -0.00000000
     atom    2 type  2   force =     0.04058261    0.01784517    0.00688134
     atom    3 type  2   force =    -0.01784516   -0.00688133    0.04058258
     atom    4 type  2   force =    -0.00688133    0.04058259    0.01784516
     atom    5 type  2   force =    -0.04058261   -0.01784517   -0.00688134
     atom    6 type  2   force =     0.01784516    0.00688133   -0.04058258
     atom    7 type  2   force =     0.00688133   -0.04058259   -0.01784516

     Total force =     0.109893     Total SCF correction =     0.000000


     Computing stress (Cartesian axis) and pressure

          total   stress  (Ry/bohr**3)                   (kbar)     P=     1831.98
   0.01245356  -0.00018268   0.00018268         1831.98      -26.87       26.87
  -0.00018268   0.01245356  -0.00018268          -26.87     1831.98      -26.87
   0.00018268  -0.00018268   0.01245356           26.87      -26.87     1831.98

     Energy error            =      7.0E-02
     Gradient error          =      4.1E-02
     Cell gradient error     =      9.0E-04


     number of scf cycles    =   4
     number of bfgs steps    =   3

     enthalpy old            =     -78.3442278720 Ry
     enthalpy new            =     -78.4138082568 Ry

     CASE: enthalpy_new < enthalpy_old

     new trust radius        =       0.1332571814 bohr
     new conv_thr            =            1.0E-10 Ry

     new unit-cell volume =    141.33465 a.u.^3 (    20.94363 Ang^3 )
     density =      3.65715 g/cm^3

CELL_PARAMETERS (alat=  6.46400000)
   0.507717839   0.519690059   0.507717823
  -0.507717801   0.507717766   0.519690071
  -0.519690088  -0.507717798   0.507717817

ATOMIC_POSITIONS (crystal)
Ca            0.0000000007       -0.0000000005        0.0000000008
H             0.3259332067        0.3805206862       -0.0217006304
H             0.6194793077        0.0217006181        0.3259332021
H             0.0217006242        0.3259331966        0.3805206913
H             0.6740667929        0.6194793140        0.0217006298
H             0.3805206926       -0.0217006179        0.6740667977
H            -0.0217006247        0.6740668035        0.6194793087



     Writing output data file ./out/cah6.save/
     NEW-OLD atomic charge density approx. for the potential
     extrapolated charge   16.05313, renormalised to   16.00000

     total cpu time spent up to now is      816.1 secs

     Self-consistent Calculation

     iteration #  1     ecut=    80.00 Ry     beta= 0.30
     Davidson diagonalization with overlap
     c_bands:  1 eigenvalues not converged
     c_bands:  1 eigenvalues not converged
     c_bands:  1 eigenvalues not converged
     c_bands:  1 eigenvalues not converged
     c_bands:  1 eigenvalues not converged
     c_bands:  1 eigenvalues not converged
     c_bands:  1 eigenvalues not converged
     c_bands:  1 eigenvalues not converged
     c_bands:  1 eigenvalues not converged
     c_bands:  1 eigenvalues not converged
     c_bands:  1 eigenvalues not converged
     c_bands:  1 eigenvalues not converged
     c_bands:  1 eigenvalues not converged
     c_bands:  1 eigenvalues not converged
     c_bands:  1 eigenvalues not converged
     c_bands:  1 eigenvalues not converged
     c_bands:  1 eigenvalues not converged
     c_bands:  1 eigenvalues not converged
     c_bands:  1 eigenvalues not converged
     c_bands:  1 eigenvalues not converged
     c_bands:  1 eigenvalues not converged
     c_bands:  1 eigenvalues not converged
     c_bands:  1 eigenvalues not converged
     c_bands:  1 eigenvalues not converged
     c_bands:  1 eigenvalues not converged
     c_bands:  1 eigenvalues not converged
     c_bands:  1 eigenvalues not converged
     c_bands:  1 eigenvalues not converged
     c_bands:  1 eigenvalues not converged
     c_bands:  1 eigenvalues not converged
     c_bands:  1 eigenvalues not converged
     c_bands:  1 eigenvalues not converged
     c_bands:  1 eigenvalues not converged
     c_bands:  1 eigenvalues not converged
     c_bands:  1 eigenvalues not converged
     c_bands:  1 eigenvalues not converged
     c_bands:  1 eigenvalues not converged
     c_bands:  1 eigenvalues not converged
     c_bands:  1 eigenvalues not converged
     c_bands:  1 eigenvalues not converged
     c_bands:  1 eigenvalues not converged
     c_bands:  1 eigenvalues not converged
     c_bands:  1 eigenvalues not converged
     c_bands:  1 eigenvalues not converged
     c_bands:  1 eigenvalues not converged
     c_bands:  1 eigenvalues not converged
     c_bands:  1 eigenvalues not converged
     c_bands:  1 eigenvalues not converged
     ethr =  1.00E-06,  avg # of iterations = 10.5

     total cpu time spent up to now is      849.2 secs

     total energy              =     -80.06884661 Ry
     estimated scf accuracy    <       0.00279996 Ry

     iteration #  2     ecut=    80.00 Ry     beta= 0.30
     Davidson diagonalization with overlap
     ethr =  1.75E-05,  avg # of iterations =  1.3

     total cpu time spent up to now is      859.3 secs

     total energy              =     -80.06901447 Ry
     estimated scf accuracy    <       0.00119678 Ry

     iteration #  3     ecut=    80.00 Ry     beta= 0.30
     Davidson diagonalization with overlap
     ethr =  7.48E-06,  avg # of iterations =  1.0

     total cpu time spent up to now is      869.1 secs

     total energy              =     -80.06902935 Ry
     estimated scf accuracy    <       0.00024817 Ry

     iteration #  4     ecut=    80.00 Ry     beta= 0.30
     Davidson diagonalization with overlap
     ethr =  1.55E-06,  avg # of iterations =  1.3

     total cpu time spent up to now is      879.0 secs

     total energy              =     -80.06903386 Ry
     estimated scf accuracy    <       0.00000455 Ry

     iteration #  5     ecut=    80.00 Ry     beta= 0.30
     Davidson diagonalization with overlap
     ethr =  2.84E-08,  avg # of iterations =  3.8

     total cpu time spent up to now is      892.2 secs

     total energy              =     -80.06903555 Ry
     estimated scf accuracy    <       0.00000041 Ry

     iteration #  6     ecut=    80.00 Ry     beta= 0.30
     Davidson diagonalization with overlap
     ethr =  2.56E-09,  avg # of iterations =  1.7

     total cpu time spent up to now is      902.8 secs

     total energy              =     -80.06903557 Ry
     estimated scf accuracy    <       0.00000005 Ry

     iteration #  7     ecut=    80.00 Ry     beta= 0.30
     Davidson diagonalization with overlap
     ethr =  2.99E-10,  avg # of iterations =  3.2

     total cpu time spent up to now is      916.5 secs

     total energy              =     -80.06903559 Ry
     estimated scf accuracy    <          9.2E-09 Ry

     iteration #  8     ecut=    80.00 Ry     beta= 0.30
     Davidson diagonalization with overlap
     ethr =  5.72E-11,  avg # of iterations =  1.3

     total cpu time spent up to now is      926.7 secs

     total energy              =     -80.06903558 Ry
     estimated scf accuracy    <          4.8E-09 Ry

     iteration #  9     ecut=    80.00 Ry     beta= 0.30
     Davidson diagonalization with overlap
     ethr =  3.01E-11,  avg # of iterations =  2.3

     total cpu time spent up to now is      939.8 secs

     total energy              =     -80.06903558 Ry
     estimated scf accuracy    <          7.6E-10 Ry

     iteration # 10     ecut=    80.00 Ry     beta= 0.30
     Davidson diagonalization with overlap
     ethr =  4.76E-12,  avg # of iterations =  2.0

     total cpu time spent up to now is      951.0 secs

     End of self-consistent calculation

     Number of k-points >= 100: set verbosity='high' to print the bands.

     the Fermi energy is    16.7189 ev

!    total energy              =     -80.06903558 Ry
     estimated scf accuracy    <          6.7E-11 Ry
     smearing contrib. (-TS)   =      -0.00000270 Ry
     internal energy E=F+TS    =     -80.06903288 Ry

     The total energy is F=E-TS. E is the sum of the following terms:
     one-electron contribution =      -3.01947981 Ry
     hartree contribution      =      11.19811194 Ry
     xc contribution           =     -15.85945623 Ry
     ewald contribution        =     -72.38820878 Ry

     convergence has been achieved in  10 iterations

     Forces acting on atoms (cartesian axes, Ry/au):

     atom    1 type  1   force =     0.00000000   -0.00000000   -0.00000000
     atom    2 type  2   force =     0.01772330    0.02276198    0.01494708
     atom    3 type  2   force =    -0.02276197   -0.01494706    0.01772330
     atom    4 type  2   force =    -0.01494706    0.01772330    0.02276196
     atom    5 type  2   force =    -0.01772330   -0.02276198   -0.01494708
     atom    6 type  2   force =     0.02276197    0.01494706   -0.01772330
     atom    7 type  2   force =     0.01494706   -0.01772330   -0.02276196

     Total force =     0.079585     Total SCF correction =     0.000001


     Computing stress (Cartesian axis) and pressure

          total   stress  (Ry/bohr**3)                   (kbar)     P=     1821.59
   0.01238289   0.00063995  -0.00063995         1821.59       94.14      -94.14
   0.00063995   0.01238289   0.00063995           94.14     1821.59       94.14
  -0.00063995   0.00063995   0.01238289          -94.14       94.14     1821.59

     Energy error            =      2.2E-02
     Gradient error          =      2.3E-02
     Cell gradient error     =      8.3E-04


     number of scf cycles    =   5
     number of bfgs steps    =   4

     enthalpy old            =     -78.4138082568 Ry
     enthalpy new            =     -78.4357207710 Ry

     CASE: enthalpy_new < enthalpy_old

     new trust radius        =       0.0836212710 bohr
     new conv_thr            =            1.0E-10 Ry

     new unit-cell volume =    144.97595 a.u.^3 (    21.48322 Ang^3 )
     density =      3.56530 g/cm^3

CELL_PARAMETERS (alat=  6.46400000)
   0.512114748   0.529272886   0.512114747
  -0.512114720   0.512114699   0.529272899
  -0.529272900  -0.512114714   0.512114734

ATOMIC_POSITIONS (crystal)
Ca            0.0000000007       -0.0000000006        0.0000000007
H             0.3387839465        0.3738719655       -0.0253579075
H             0.6261280284        0.0253578930        0.3387839364
H             0.0253578999        0.3387839303        0.3738719688
H             0.6612160534        0.6261280345        0.0253579068
H             0.3738719718       -0.0253578925        0.6612160634
H            -0.0253579006        0.6612160698        0.6261280313



     Writing output data file ./out/cah6.save/
     NEW-OLD atomic charge density approx. for the potential
     extrapolated charge   16.40174, renormalised to   16.00000

     total cpu time spent up to now is      955.5 secs

     Self-consistent Calculation

     iteration #  1     ecut=    80.00 Ry     beta= 0.30
     Davidson diagonalization with overlap
     c_bands:  1 eigenvalues not converged
     c_bands:  1 eigenvalues not converged
     c_bands:  1 eigenvalues not converged
     c_bands:  1 eigenvalues not converged
     c_bands:  1 eigenvalues not converged
     c_bands:  1 eigenvalues not converged
     c_bands:  1 eigenvalues not converged
     c_bands:  1 eigenvalues not converged
     c_bands:  1 eigenvalues not converged
     c_bands:  1 eigenvalues not converged
     c_bands:  1 eigenvalues not converged
     c_bands:  1 eigenvalues not converged
     c_bands:  1 eigenvalues not converged
     c_bands:  1 eigenvalues not converged
     c_bands:  1 eigenvalues not converged
     c_bands:  1 eigenvalues not converged
     c_bands:  1 eigenvalues not converged
     c_bands:  1 eigenvalues not converged
     c_bands:  1 eigenvalues not converged
     c_bands:  1 eigenvalues not converged
     c_bands:  1 eigenvalues not converged
     c_bands:  1 eigenvalues not converged
     c_bands:  1 eigenvalues not converged
     c_bands:  1 eigenvalues not converged
     c_bands:  1 eigenvalues not converged
     c_bands:  1 eigenvalues not converged
     c_bands:  1 eigenvalues not converged
     c_bands:  1 eigenvalues not converged
     c_bands:  1 eigenvalues not converged
     c_bands:  1 eigenvalues not converged
     c_bands:  1 eigenvalues not converged
     c_bands:  1 eigenvalues not converged
     c_bands:  1 eigenvalues not converged
     c_bands:  1 eigenvalues not converged
     c_bands:  1 eigenvalues not converged
     c_bands:  1 eigenvalues not converged
     c_bands:  1 eigenvalues not converged
     c_bands:  1 eigenvalues not converged
     c_bands:  1 eigenvalues not converged
     c_bands:  1 eigenvalues not converged
     c_bands:  1 eigenvalues not converged
     c_bands:  1 eigenvalues not converged
     c_bands:  1 eigenvalues not converged
     c_bands:  1 eigenvalues not converged
     c_bands:  1 eigenvalues not converged
     ethr =  1.00E-06,  avg # of iterations = 10.1

     total cpu time spent up to now is      988.0 secs

     total energy              =     -80.11316386 Ry
     estimated scf accuracy    <       0.00900733 Ry

     iteration #  2     ecut=    80.00 Ry     beta= 0.30
     Davidson diagonalization with overlap
     ethr =  5.63E-05,  avg # of iterations =  3.8

     total cpu time spent up to now is     1004.8 secs

     total energy              =     -80.12287201 Ry
     estimated scf accuracy    <       0.00220599 Ry

     iteration #  3     ecut=    80.00 Ry     beta= 0.30
     Davidson diagonalization with overlap
     ethr =  1.38E-05,  avg # of iterations =  1.7

     total cpu time spent up to now is     1015.2 secs

     total energy              =     -80.12228555 Ry
     estimated scf accuracy    <       0.00101577 Ry

     iteration #  4     ecut=    80.00 Ry     beta= 0.30
     Davidson diagonalization with overlap
     ethr =  6.35E-06,  avg # of iterations =  2.6

     total cpu time spent up to now is     1029.9 secs

     total energy              =     -80.12252473 Ry
     estimated scf accuracy    <       0.00025930 Ry

     iteration #  5     ecut=    80.00 Ry     beta= 0.30
     Davidson diagonalization with overlap
     ethr =  1.62E-06,  avg # of iterations =  3.1

     total cpu time spent up to now is     1044.1 secs

     total energy              =     -80.12259646 Ry
     estimated scf accuracy    <       0.00001469 Ry

     iteration #  6     ecut=    80.00 Ry     beta= 0.30
     Davidson diagonalization with overlap
     ethr =  9.18E-08,  avg # of iterations =  2.1

     total cpu time spent up to now is     1056.7 secs

     total energy              =     -80.12260010 Ry
     estimated scf accuracy    <       0.00000016 Ry

     iteration #  7     ecut=    80.00 Ry     beta= 0.30
     Davidson diagonalization with overlap
     ethr =  9.77E-10,  avg # of iterations =  3.4

     total cpu time spent up to now is     1070.5 secs

     total energy              =     -80.12259991 Ry
     estimated scf accuracy    <       0.00000048 Ry

     iteration #  8     ecut=    80.00 Ry     beta= 0.30
     Davidson diagonalization with overlap
     ethr =  9.77E-10,  avg # of iterations =  2.7

     total cpu time spent up to now is     1084.1 secs

     total energy              =     -80.12260000 Ry
     estimated scf accuracy    <          3.4E-09 Ry

     iteration #  9     ecut=    80.00 Ry     beta= 0.30
     Davidson diagonalization with overlap
     ethr =  2.15E-11,  avg # of iterations =  4.0

     total cpu time spent up to now is     1099.3 secs

     total energy              =     -80.12260000 Ry
     estimated scf accuracy    <          5.2E-10 Ry

     iteration # 10     ecut=    80.00 Ry     beta= 0.30
     Davidson diagonalization with overlap
     ethr =  3.25E-12,  avg # of iterations =  1.1

     total cpu time spent up to now is     1109.1 secs

     total energy              =     -80.12260000 Ry
     estimated scf accuracy    <          2.7E-10 Ry

     iteration # 11     ecut=    80.00 Ry     beta= 0.30
     Davidson diagonalization with overlap
     ethr =  1.66E-12,  avg # of iterations =  2.3

     total cpu time spent up to now is     1121.9 secs

     End of self-consistent calculation

     Number of k-points >= 100: set verbosity='high' to print the bands.

     the Fermi energy is    16.4140 ev

!    total energy              =     -80.12260000 Ry
     estimated scf accuracy    <          9.5E-12 Ry
     smearing contrib. (-TS)   =       0.00002253 Ry
     internal energy E=F+TS    =     -80.12262253 Ry

     The total energy is F=E-TS. E is the sum of the following terms:
     one-electron contribution =      -3.69498316 Ry
     hartree contribution      =      11.27380099 Ry
     xc contribution           =     -15.79314219 Ry
     ewald contribution        =     -71.90829817 Ry

     convergence has been achieved in  11 iterations

     Forces acting on atoms (cartesian axes, Ry/au):

     atom    1 type  1   force =     0.00000000   -0.00000000   -0.00000000
     atom    2 type  2   force =     0.00206098    0.01393079    0.00956524
     atom    3 type  2   force =    -0.01393079   -0.00956524    0.00206097
     atom    4 type  2   force =    -0.00956524    0.00206098    0.01393079
     atom    5 type  2   force =    -0.00206098   -0.01393079   -0.00956524
     atom    6 type  2   force =     0.01393079    0.00956524   -0.00206097
     atom    7 type  2   force =     0.00956524   -0.00206098   -0.01393079

     Total force =     0.041700     Total SCF correction =     0.000000


     Computing stress (Cartesian axis) and pressure

          total   stress  (Ry/bohr**3)                   (kbar)     P=     1659.52
   0.01128118   0.00018300  -0.00018300         1659.52       26.92      -26.92
   0.00018300   0.01128118   0.00018300           26.92     1659.52       26.92
  -0.00018300   0.00018300   0.01128118          -26.92       26.92     1659.52

     Energy error            =      1.1E-02
     Gradient error          =      1.4E-02
     Cell gradient error     =      2.8E-04


     number of scf cycles    =   6
     number of bfgs steps    =   5

     enthalpy old            =     -78.4357207710 Ry
     enthalpy new            =     -78.4472050424 Ry

     CASE: enthalpy_new < enthalpy_old

     new trust radius        =       0.0390933135 bohr
     new conv_thr            =            1.0E-10 Ry

     new unit-cell volume =    143.93091 a.u.^3 (    21.32836 Ang^3 )
     density =      3.59118 g/cm^3

CELL_PARAMETERS (alat=  6.46400000)
   0.510930476   0.530721786   0.510930480
  -0.510930443   0.510930433   0.530721793
  -0.530721790  -0.510930444   0.510930457

ATOMIC_POSITIONS (crystal)
Ca            0.0000000007       -0.0000000007        0.0000000007
H             0.3447141193        0.3738666228       -0.0271110666
H             0.6261333695        0.0271110522        0.3447141069
H             0.0271110578        0.3447141022        0.3738666253
H             0.6552858807        0.6261333771        0.0271110659
H             0.3738666306       -0.0271110515        0.6552858930
H            -0.0271110586        0.6552858979        0.6261333748



     Writing output data file ./out/cah6.save/
     NEW-OLD atomic charge density approx. for the potential
     extrapolated charge   15.88387, renormalised to   16.00000

     total cpu time spent up to now is     1126.4 secs

     Self-consistent Calculation

     iteration #  1     ecut=    80.00 Ry     beta= 0.30
     Davidson diagonalization with overlap
     c_bands:  1 eigenvalues not converged
     c_bands:  1 eigenvalues not converged
     c_bands:  1 eigenvalues not converged
     c_bands:  1 eigenvalues not converged
[...]
     c_bands:  2 eigenvalues not converged
     c_bands:  3 eigenvalues not converged
     c_bands:  2 eigenvalues not converged
     c_bands:  2 eigenvalues not converged
     c_bands:  1 eigenvalues not converged
     c_bands:  1 eigenvalues not converged
     c_bands:  1 eigenvalues not converged
     c_bands:  1 eigenvalues not converged
     c_bands:  1 eigenvalues not converged
     c_bands:  1 eigenvalues not converged
     c_bands:  2 eigenvalues not converged
     c_bands:  1 eigenvalues not converged
     c_bands:  2 eigenvalues not converged
     c_bands:  1 eigenvalues not converged
     c_bands:  2 eigenvalues not converged
     c_bands:  2 eigenvalues not converged
     c_bands:  1 eigenvalues not converged
     c_bands:  2 eigenvalues not converged
     c_bands:  1 eigenvalues not converged
     c_bands:  1 eigenvalues not converged
     c_bands:  1 eigenvalues not converged
     c_bands:  1 eigenvalues not converged
     c_bands:  1 eigenvalues not converged
     c_bands:  1 eigenvalues not converged
     c_bands:  2 eigenvalues not converged
     c_bands:  2 eigenvalues not converged
     c_bands:  2 eigenvalues not converged
     c_bands:  1 eigenvalues not converged
     c_bands:  1 eigenvalues not converged
     c_bands:  1 eigenvalues not converged
     c_bands:  2 eigenvalues not converged
     c_bands:  1 eigenvalues not converged
     c_bands:  1 eigenvalues not converged
     c_bands:  1 eigenvalues not converged
     c_bands:  1 eigenvalues not converged
     c_bands:  1 eigenvalues not converged
     c_bands:  1 eigenvalues not converged
     c_bands:  1 eigenvalues not converged
     c_bands:  2 eigenvalues not converged
     c_bands:  3 eigenvalues not converged
     c_bands:  2 eigenvalues not converged
     c_bands:  2 eigenvalues not converged
     c_bands:  1 eigenvalues not converged
     c_bands:  1 eigenvalues not converged
     c_bands:  2 eigenvalues not converged
     c_bands:  2 eigenvalues not converged
     c_bands:  2 eigenvalues not converged
     c_bands:  2 eigenvalues not converged
     c_bands:  1 eigenvalues not converged
     c_bands:  1 eigenvalues not converged
     c_bands:  1 eigenvalues not converged
     c_bands:  2 eigenvalues not converged
     c_bands:  2 eigenvalues not converged
     c_bands:  2 eigenvalues not converged
     c_bands:  2 eigenvalues not converged
     c_bands:  2 eigenvalues not converged
     c_bands:  3 eigenvalues not converged
     c_bands:  1 eigenvalues not converged
     c_bands:  2 eigenvalues not converged
     c_bands:  2 eigenvalues not converged
     c_bands:  2 eigenvalues not converged
     c_bands:  2 eigenvalues not converged
     c_bands:  1 eigenvalues not converged
     c_bands:  2 eigenvalues not converged
     c_bands:  2 eigenvalues not converged
     c_bands:  2 eigenvalues not converged
     c_bands:  2 eigenvalues not converged
     c_bands:  3 eigenvalues not converged
     c_bands:  2 eigenvalues not converged
     c_bands:  2 eigenvalues not converged
     c_bands:  1 eigenvalues not converged
     c_bands:  1 eigenvalues not converged
     c_bands:  2 eigenvalues not converged
     c_bands:  3 eigenvalues not converged
     c_bands:  2 eigenvalues not converged
     c_bands:  2 eigenvalues not converged
     c_bands:  2 eigenvalues not converged
     c_bands:  1 eigenvalues not converged
     c_bands:  2 eigenvalues not converged
     c_bands:  2 eigenvalues not converged
     c_bands:  2 eigenvalues not converged
     c_bands:  2 eigenvalues not converged
     c_bands:  2 eigenvalues not converged
     c_bands:  2 eigenvalues not converged
     c_bands:  2 eigenvalues not converged
     c_bands:  2 eigenvalues not converged
     c_bands:  2 eigenvalues not converged
     c_bands:  2 eigenvalues not converged
     c_bands:  2 eigenvalues not converged
     c_bands:  2 eigenvalues not converged
     c_bands:  2 eigenvalues not converged
     c_bands:  2 eigenvalues not converged
     c_bands:  2 eigenvalues not converged
     c_bands:  1 eigenvalues not converged
     c_bands:  2 eigenvalues not converged
     c_bands:  2 eigenvalues not converged
     c_bands:  2 eigenvalues not converged
     c_bands:  1 eigenvalues not converged
     c_bands:  1 eigenvalues not converged
     c_bands:  1 eigenvalues not converged
     c_bands:  2 eigenvalues not converged
     c_bands:  1 eigenvalues not converged
     c_bands:  2 eigenvalues not converged
     c_bands:  2 eigenvalues not converged
     c_bands:  1 eigenvalues not converged
     c_bands:  3 eigenvalues not converged
     c_bands:  2 eigenvalues not converged
     c_bands:  1 eigenvalues not converged
     c_bands:  2 eigenvalues not converged
     c_bands:  3 eigenvalues not converged
     c_bands:  3 eigenvalues not converged
     c_bands:  2 eigenvalues not converged
     c_bands:  2 eigenvalues not converged
     c_bands:  2 eigenvalues not converged
     c_bands:  1 eigenvalues not converged
     c_bands:  2 eigenvalues not converged
     c_bands:  2 eigenvalues not converged
     c_bands:  2 eigenvalues not converged
     c_bands:  2 eigenvalues not converged
     c_bands:  3 eigenvalues not converged
     c_bands:  3 eigenvalues not converged
     c_bands:  1 eigenvalues not converged
     c_bands:  3 eigenvalues not converged
     c_bands:  1 eigenvalues not converged
     c_bands:  2 eigenvalues not converged
     c_bands:  3 eigenvalues not converged
     c_bands:  1 eigenvalues not converged
     c_bands:  2 eigenvalues not converged
     c_bands:  2 eigenvalues not converged
     c_bands:  2 eigenvalues not converged
     c_bands:  3 eigenvalues not converged
     c_bands:  2 eigenvalues not converged
     c_bands:  1 eigenvalues not converged
     c_bands:  2 eigenvalues not converged
     c_bands:  2 eigenvalues not converged
     c_bands:  1 eigenvalues not converged
     c_bands:  1 eigenvalues not converged
     c_bands:  2 eigenvalues not converged
     c_bands:  2 eigenvalues not converged
     c_bands:  2 eigenvalues not converged
     c_bands:  2 eigenvalues not converged
     c_bands:  2 eigenvalues not converged
     c_bands:  1 eigenvalues not converged
     c_bands:  3 eigenvalues not converged
     c_bands:  2 eigenvalues not converged
     c_bands:  2 eigenvalues not converged
     c_bands:  2 eigenvalues not converged
     c_bands:  2 eigenvalues not converged
     c_bands:  1 eigenvalues not converged
     c_bands:  1 eigenvalues not converged
     c_bands:  1 eigenvalues not converged
     c_bands:  1 eigenvalues not converged
     c_bands:  1 eigenvalues not converged
     c_bands:  2 eigenvalues not converged
     c_bands:  2 eigenvalues not converged
     c_bands:  2 eigenvalues not converged
     c_bands:  2 eigenvalues not converged
     c_bands:  1 eigenvalues not converged
     c_bands:  1 eigenvalues not converged
     c_bands:  2 eigenvalues not converged
     c_bands:  2 eigenvalues not converged
     c_bands:  2 eigenvalues not converged
     c_bands:  2 eigenvalues not converged
     c_bands:  2 eigenvalues not converged
     c_bands:  1 eigenvalues not converged
     c_bands:  2 eigenvalues not converged
     c_bands:  2 eigenvalues not converged
     c_bands:  1 eigenvalues not converged
     c_bands:  1 eigenvalues not converged
     c_bands:  2 eigenvalues not converged
     c_bands:  1 eigenvalues not converged
     c_bands:  1 eigenvalues not converged
     c_bands:  1 eigenvalues not converged
     c_bands:  1 eigenvalues not converged
     c_bands:  1 eigenvalues not converged
     c_bands:  2 eigenvalues not converged
     c_bands:  1 eigenvalues not converged
     c_bands:  2 eigenvalues not converged
     c_bands:  2 eigenvalues not converged
     c_bands:  1 eigenvalues not converged
     c_bands:  1 eigenvalues not converged
     c_bands:  1 eigenvalues not converged
     c_bands:  2 eigenvalues not converged
     c_bands:  1 eigenvalues not converged
     c_bands:  2 eigenvalues not converged
     c_bands:  2 eigenvalues not converged
     c_bands:  2 eigenvalues not converged
     c_bands:  2 eigenvalues not converged
     c_bands:  1 eigenvalues not converged
     c_bands:  3 eigenvalues not converged
     c_bands:  1 eigenvalues not converged
     c_bands:  2 eigenvalues not converged
     c_bands:  2 eigenvalues not converged
     c_bands:  2 eigenvalues not converged
     c_bands:  1 eigenvalues not converged
     c_bands:  1 eigenvalues not converged
     c_bands:  2 eigenvalues not converged
     c_bands:  1 eigenvalues not converged
     c_bands:  1 eigenvalues not converged
     c_bands:  1 eigenvalues not converged
     c_bands:  2 eigenvalues not converged
     c_bands:  2 eigenvalues not converged
     c_bands:  2 eigenvalues not converged
     c_bands:  2 eigenvalues not converged
     c_bands:  2 eigenvalues not converged
     c_bands:  3 eigenvalues not converged
     c_bands:  2 eigenvalues not converged
     c_bands:  2 eigenvalues not converged
     c_bands:  2 eigenvalues not converged
     c_bands:  1 eigenvalues not converged
     c_bands:  1 eigenvalues not converged
     c_bands:  2 eigenvalues not converged
     c_bands:  1 eigenvalues not converged
     c_bands:  1 eigenvalues not converged
     c_bands:  1 eigenvalues not converged
     c_bands:  1 eigenvalues not converged
     c_bands:  2 eigenvalues not converged
     c_bands:  2 eigenvalues not converged
     c_bands:  3 eigenvalues not converged
     c_bands:  2 eigenvalues not converged
     c_bands:  2 eigenvalues not converged
     c_bands:  3 eigenvalues not converged
     c_bands:  2 eigenvalues not converged
     c_bands:  2 eigenvalues not converged
     c_bands:  1 eigenvalues not converged
     c_bands:  1 eigenvalues not converged
     c_bands:  2 eigenvalues not converged
     c_bands:  1 eigenvalues not converged
     c_bands:  1 eigenvalues not converged
     c_bands:  3 eigenvalues not converged
     c_bands:  2 eigenvalues not converged
     c_bands:  3 eigenvalues not converged
     c_bands:  1 eigenvalues not converged
     c_bands:  2 eigenvalues not converged
     c_bands:  3 eigenvalues not converged
     c_bands:  2 eigenvalues not converged
     c_bands:  1 eigenvalues not converged
     c_bands:  3 eigenvalues not converged
     c_bands:  3 eigenvalues not converged
     c_bands:  3 eigenvalues not converged
     c_bands:  2 eigenvalues not converged
     c_bands:  1 eigenvalues not converged
     c_bands:  1 eigenvalues not converged
     c_bands:  2 eigenvalues not converged
     c_bands:  1 eigenvalues not converged
     c_bands:  3 eigenvalues not converged
     c_bands:  3 eigenvalues not converged
     c_bands:  2 eigenvalues not converged
     c_bands:  2 eigenvalues not converged
     c_bands:  1 eigenvalues not converged
     c_bands:  1 eigenvalues not converged
     c_bands:  1 eigenvalues not converged
     c_bands:  1 eigenvalues not converged
     c_bands:  2 eigenvalues not converged
     c_bands:  2 eigenvalues not converged
     c_bands:  2 eigenvalues not converged
     c_bands:  3 eigenvalues not converged
     c_bands:  1 eigenvalues not converged
     c_bands:  2 eigenvalues not converged
     c_bands:  1 eigenvalues not converged
     c_bands:  2 eigenvalues not converged
     c_bands:  1 eigenvalues not converged
     c_bands:  2 eigenvalues not converged
     c_bands:  2 eigenvalues not converged
     c_bands:  3 eigenvalues not converged
     c_bands:  1 eigenvalues not converged
     c_bands:  1 eigenvalues not converged
     c_bands:  1 eigenvalues not converged
     c_bands:  1 eigenvalues not converged
     c_bands:  3 eigenvalues not converged
     c_bands:  2 eigenvalues not converged
     c_bands:  2 eigenvalues not converged
     c_bands:  1 eigenvalues not converged
     c_bands:  1 eigenvalues not converged
     c_bands:  1 eigenvalues not converged
     c_bands:  2 eigenvalues not converged
     c_bands:  2 eigenvalues not converged
     c_bands:  2 eigenvalues not converged
     c_bands:  3 eigenvalues not converged
     c_bands:  2 eigenvalues not converged
     c_bands:  1 eigenvalues not converged
     c_bands:  1 eigenvalues not converged
     c_bands:  1 eigenvalues not converged
     c_bands:  2 eigenvalues not converged
     c_bands:  3 eigenvalues not converged
     c_bands:  2 eigenvalues not converged
     c_bands:  2 eigenvalues not converged
     c_bands:  2 eigenvalues not converged
     c_bands:  1 eigenvalues not converged
     c_bands:  2 eigenvalues not converged
     c_bands:  2 eigenvalues not converged
     c_bands:  3 eigenvalues not converged
     c_bands:  1 eigenvalues not converged
     c_bands:  1 eigenvalues not converged
     c_bands:  1 eigenvalues not converged
     ethr =  1.00E-06,  avg # of iterations = 19.9

     total cpu time spent up to now is     6507.1 secs

     total energy              =     -80.12124660 Ry
     estimated scf accuracy    <       0.09864536 Ry

     iteration #  2     ecut=    80.00 Ry     beta= 0.30
     Davidson diagonalization with overlap
     ethr =  6.17E-04,  avg # of iterations =  1.0

     total cpu time spent up to now is     6521.5 secs

     total energy              =     -80.11273301 Ry
     estimated scf accuracy    <       0.03259037 Ry

     iteration #  3     ecut=    80.00 Ry     beta= 0.30
     Davidson diagonalization with overlap
     ethr =  2.04E-04,  avg # of iterations =  2.3

     total cpu time spent up to now is     6539.6 secs

     total energy              =     -80.11702181 Ry
     estimated scf accuracy    <       0.00227268 Ry

     iteration #  4     ecut=    80.00 Ry     beta= 0.30
     Davidson diagonalization with overlap
     ethr =  1.42E-05,  avg # of iterations =  2.9

     total cpu time spent up to now is     6560.3 secs

     total energy              =     -80.11726607 Ry
     estimated scf accuracy    <       0.00076709 Ry

     iteration #  5     ecut=    80.00 Ry     beta= 0.30
     Davidson diagonalization with overlap
     ethr =  4.79E-06,  avg # of iterations =  3.8

     total cpu time spent up to now is     6580.5 secs

     total energy              =     -80.11741386 Ry
     estimated scf accuracy    <       0.00001115 Ry

     iteration #  6     ecut=    80.00 Ry     beta= 0.30
     Davidson diagonalization with overlap
     ethr =  6.97E-08,  avg # of iterations =  3.8

     total cpu time spent up to now is     6599.8 secs

     total energy              =     -80.11741732 Ry
     estimated scf accuracy    <       0.00000064 Ry

     iteration #  7     ecut=    80.00 Ry     beta= 0.30
     Davidson diagonalization with overlap
     ethr =  3.98E-09,  avg # of iterations =  2.3

     total cpu time spent up to now is     6618.0 secs

     total energy              =     -80.11741751 Ry
     estimated scf accuracy    <       0.00000001 Ry

     iteration #  8     ecut=    80.00 Ry     beta= 0.30
     Davidson diagonalization with overlap
     ethr =  7.69E-11,  avg # of iterations =  3.6

     total cpu time spent up to now is     6636.8 secs

     total energy              =     -80.11741751 Ry
     estimated scf accuracy    <          5.0E-10 Ry

     iteration #  9     ecut=    80.00 Ry     beta= 0.30
     Davidson diagonalization with overlap
     ethr =  3.14E-12,  avg # of iterations =  2.8

     total cpu time spent up to now is     6654.6 secs

     total energy              =     -80.11741751 Ry
     estimated scf accuracy    <          9.8E-12 Ry

     iteration # 10     ecut=    80.00 Ry     beta= 0.30
     Davidson diagonalization with overlap
     ethr =  1.00E-13,  avg # of iterations =  2.3

     total cpu time spent up to now is     6670.8 secs

     total energy              =     -80.11741751 Ry
     estimated scf accuracy    <          1.1E-11 Ry

     iteration # 11     ecut=    80.00 Ry     beta= 0.30
     Davidson diagonalization with overlap
     ethr =  1.00E-13,  avg # of iterations =  1.7

     total cpu time spent up to now is     6685.9 secs

     End of self-consistent calculation

     Number of k-points >= 100: set verbosity='high' to print the bands.

     the Fermi energy is    16.1959 ev

!    total energy              =     -80.11741751 Ry
     estimated scf accuracy    <          4.6E-13 Ry
     smearing contrib. (-TS)   =      -0.00000750 Ry
     internal energy E=F+TS    =     -80.11741001 Ry

     The total energy is F=E-TS. E is the sum of the following terms:
     one-electron contribution =      -0.99954530 Ry
     hartree contribution      =      10.36304939 Ry
     xc contribution           =     -15.72507987 Ry
     ewald contribution        =     -73.75583424 Ry

     convergence has been achieved in  11 iterations

     Forces acting on atoms (cartesian axes, Ry/au):

     atom    1 type  1   force =     0.00000325    0.00000662   -0.00000865
     atom    2 type  2   force =    -0.00001104   -0.00006066   -0.00003660
     atom    3 type  2   force =    -0.00002278    0.00002058   -0.00000245
     atom    4 type  2   force =    -0.00009097   -0.00004789    0.00008945
     atom    5 type  2   force =    -0.00001338    0.00001198    0.00001274
     atom    6 type  2   force =     0.00004688   -0.00001039   -0.00004266
     atom    7 type  2   force =     0.00008803    0.00007975   -0.00001182

     Total force =     0.000209     Total SCF correction =     0.000000


     Computing stress (Cartesian axis) and pressure

          total   stress  (Ry/bohr**3)                   (kbar)     P=     1700.22
   0.01155775   0.00000135  -0.00000112         1700.20        0.20       -0.16
   0.00000135   0.01155828   0.00000130            0.20     1700.28        0.19
  -0.00000112   0.00000130   0.01155747           -0.16        0.19     1700.16


     Writing output data file ./out/cah6.save/

     init_run     :      8.05s CPU      9.75s WALL (       2 calls)
     electrons    :   5288.08s CPU   6465.33s WALL (      48 calls)
     update_pot   :      6.61s CPU      6.65s WALL (      46 calls)
     forces       :     70.43s CPU     74.22s WALL (      48 calls)
     stress       :    123.96s CPU    126.76s WALL (      48 calls)

     Called by init_run:
     wfcinit      :      7.75s CPU      9.45s WALL (       2 calls)
     potinit      :      0.10s CPU      0.10s WALL (       2 calls)
     hinit0       :      0.14s CPU      0.14s WALL (       2 calls)

     Called by electrons:
     c_bands      :   4759.98s CPU   5775.31s WALL (     481 calls)
     sum_band     :    527.11s CPU    688.35s WALL (     481 calls)
     v_of_rho     :      0.83s CPU      1.04s WALL (     520 calls)
     mix_rho      :      0.14s CPU      0.19s WALL (     481 calls)

     Called by c_bands:
     init_us_2    :     90.27s CPU    109.54s WALL ( 2175120 calls)
     cegterg      :   4561.99s CPU   5548.17s WALL (  987024 calls)

     Called by *egterg:
     cdiaghg      :    351.16s CPU    411.08s WALL ( 3536162 calls)
     h_psi        :   3285.42s CPU   4058.22s WALL ( 3653138 calls)
     g_psi        :     29.18s CPU     33.92s WALL ( 2662010 calls)

     Called by h_psi:
     h_psi:calbec :    310.92s CPU    395.98s WALL ( 3653138 calls)
     vloc_psi     :   2669.25s CPU   3284.36s WALL ( 3653138 calls)
     add_vuspsi   :    258.75s CPU    321.45s WALL ( 3653138 calls)

     General routines
     calbec       :    370.46s CPU    455.53s WALL ( 4145618 calls)
     fft          :      0.50s CPU      0.64s WALL (    5591 calls)
     ffts         :      0.06s CPU      0.08s WALL (     481 calls)
     fftw         :   2742.40s CPU   3398.93s WALL (75108388 calls)

     Parallel routines
     fft_scatt_xy :    359.91s CPU    440.44s WALL (75114460 calls)
     fft_scatt_yz :   1229.58s CPU   1543.22s WALL (75114460 calls)

     PWSCF        :      1h31m CPU      1h51m WALL


   This run was terminated on:   7:18:39   3Jun2026            

=------------------------------------------------------------------------------=
   JOB DONE.
=------------------------------------------------------------------------------=
