
     Program PWSCF v.6.7MaX starts on  3Jun2026 at 23: 8: 1 

     This program is part of the open-source Quantum ESPRESSO suite
     for quantum simulation of materials; please cite
         "P. Giannozzi et al., J. Phys.:Condens. Matter 21 395502 (2009);
         "P. Giannozzi et al., J. Phys.:Condens. Matter 29 465901 (2017);
          URL http://www.quantum-espresso.org", 
     in publications or presentations arising from this work. More details at
     http://www.quantum-espresso.org/quote

     Parallel version (MPI), running on     7 processors

     MPI processes distributed on     1 nodes
     R & G space division:  proc/nbgrp/npool/nimage =       7
     Reading input from scf.in

     Current dimensions of program PWSCF are:
     Max number of different atomic species (ntypx) = 10
     Max number of k-points (npk) =  40000
     Max angular momentum in pseudopotentials (lmaxx) =  3
     Message from routine read_pp_mesh:
     mesh size missing, using the one in header
     Message from routine read_pp_mesh:
     mesh size missing, using the one in header

     Subspace diagonalization in iterative solution of the eigenvalue problem:
     a serial algorithm will be used


     Parallelization info
     --------------------
     sticks:   dense  smooth     PW     G-vecs:    dense   smooth      PW
     Min         109     109     37                 1921     1921     395
     Max         110     110     38                 1922     1922     398
     Sum         769     769    265                13451    13451    2779



     bravais-lattice index     =            0
     lattice parameter (alat)  =       5.6562  a.u.
     unit-cell volume          =     139.3353 (a.u.)^3
     number of atoms/cell      =            7
     number of atomic types    =            2
     number of electrons       =        16.00
     number of Kohn-Sham states=           12
     kinetic-energy cutoff     =      80.0000  Ry
     charge density cutoff     =     320.0000  Ry
     scf convergence threshold =      1.0E-10
     mixing beta               =       0.3000
     number of iterations used =            8  plain     mixing
     Exchange-correlation= PBE
                           (   1   4   3   4   0   0   0)

     celldm(1)=   5.656236  celldm(2)=   0.000000  celldm(3)=   0.000000
     celldm(4)=   0.000000  celldm(5)=   0.000000  celldm(6)=   0.000000

     crystal axes: (cart. coord. in units of alat)
               a(1) = (   0.577438   0.577148   0.577465 )  
               a(2) = (  -0.577355   0.577371   0.577478 )  
               a(3) = (  -0.577442  -0.577368   0.577371 )  

     reciprocal axes: (cart. coord. in units 2 pi/alat)
               b(1) = (  0.865966 -0.000145  0.865926 )  
               b(2) = ( -0.865788  0.866061  0.000163 )  
               b(3) = ( -0.000158 -0.866076  0.865758 )  


     PseudoPot. # 1 for Ca read from file:
     ./pseudo/Ca_ONCV_PBE_sr.upf
     MD5 check sum: 330ced702c1f591cf481eb59685f274b
     Pseudo is Norm-conserving, Zval = 10.0
     Generated using ONCVPSP code by D. R. Hamann
     Using radial grid of 1766 points,  6 beta functions with: 
                l(1) =   0
                l(2) =   0
                l(3) =   1
                l(4) =   1
                l(5) =   2
                l(6) =   2

     PseudoPot. # 2 for H  read from file:
     ./pseudo/H_ONCV_PBE_sr.upf
     MD5 check sum: 8975ef619c0c80d0ef0fa21f3286b90d
     Pseudo is Norm-conserving, Zval =  1.0
     Generated using ONCVPSP code by D. R. Hamann
     Using radial grid of 1166 points,  2 beta functions with: 
                l(1) =   0
                l(2) =   0

     atomic species   valence    mass     pseudopotential
        Ca            10.00    40.07800     Ca( 1.00)
        H              1.00     1.00800     H ( 1.00)

     No symmetry found


                                    s                        frac. trans.

      isym =  1     identity                                     

 cryst.   s( 1) = (     1          0          0      )
                  (     0          1          0      )
                  (     0          0          1      )

 cart.    s( 1) = (  1.0000000 -0.0000000 -0.0000000 )
                  (  0.0000000  1.0000000 -0.0000000 )
                  ( -0.0000000  0.0000000  1.0000000 )


   Cartesian axes

     site n.     atom                  positions (alat units)
         1           Ca  tau(   1) = (   0.0002480   0.0003202  -0.0007293  )
         2           H   tau(   2) = (   0.0002689   0.5777403   0.2880770  )
         3           H   tau(   3) = (   0.0002437   0.2888756   0.5767480  )
         4           H   tau(   4) = (  -0.2883754   0.0003806   0.5765632  )
         5           H   tau(   5) = (   0.0003337   0.5774680   0.8654666  )
         6           H   tau(   6) = (   0.0002285  -0.2884803   0.5766608  )
         7           H   tau(   7) = (  -0.8659155   0.0002398   0.5767488  )

   Crystallographic axes

     site n.     atom                  positions (cryst. coord.)
         1           Ca  tau(   1) = ( -0.0004168  0.0000625 -0.0009087  )
         2           H   tau(   2) = (  0.2496023  0.5001726 -0.2509622  )
         3           H   tau(   3) = (  0.4995902  0.2500669  0.2491359  )
         4           H   tau(   4) = (  0.2495377  0.2500955  0.4988802  )
         5           H   tau(   5) = (  0.7496351  0.4999747  0.2491534  )
         6           H   tau(   6) = (  0.4995854 -0.2499455  0.7490947  )
         7           H   tau(   7) = ( -0.2504317  0.7500010  0.4992540  )

     number of k points=  2052  Methfessel-Paxton smearing, width (Ry)=  0.0100
                       cart. coord. in units 2pi/alat
        k(    1) = (   0.0000000   0.0000000   0.0000000), wk =   0.0004883
        k(    2) = (  -0.0000099  -0.0541298   0.0541099), wk =   0.0009766
        k(    3) = (  -0.0000197  -0.1082595   0.1082198), wk =   0.0009766
        k(    4) = (  -0.0000296  -0.1623893   0.1623297), wk =   0.0009766
        k(    5) = (  -0.0000395  -0.2165191   0.2164395), wk =   0.0009766
        k(    6) = (  -0.0000493  -0.2706489   0.2705494), wk =   0.0009766
        k(    7) = (  -0.0000592  -0.3247786   0.3246593), wk =   0.0009766
        k(    8) = (  -0.0000691  -0.3789084   0.3787692), wk =   0.0009766
        k(    9) = (   0.0000789   0.4330382  -0.4328791), wk =   0.0004883
        k(   10) = (  -0.0541118   0.0541288   0.0000102), wk =   0.0009766
        k(   11) = (  -0.0541216  -0.0000009   0.0541201), wk =   0.0009766
        k(   12) = (  -0.0541315  -0.0541307   0.1082300), wk =   0.0009766
        k(   13) = (  -0.0541414  -0.1082605   0.1623398), wk =   0.0009766
        k(   14) = (  -0.0541512  -0.1623903   0.2164497), wk =   0.0009766
        k(   15) = (  -0.0541611  -0.2165200   0.2705596), wk =   0.0009766
        k(   16) = (  -0.0541710  -0.2706498   0.3246695), wk =   0.0009766
        k(   17) = (  -0.0541808  -0.3247796   0.3787794), wk =   0.0009766
        k(   18) = (  -0.0540328   0.4871670  -0.4328689), wk =   0.0009766
        k(   19) = (  -0.0540427   0.4330372  -0.3787590), wk =   0.0009766
        k(   20) = (  -0.0540526   0.3789075  -0.3246491), wk =   0.0009766
        k(   21) = (  -0.0540624   0.3247777  -0.2705393), wk =   0.0009766
        k(   22) = (  -0.0540723   0.2706479  -0.2164294), wk =   0.0009766
        k(   23) = (  -0.0540822   0.2165181  -0.1623195), wk =   0.0009766
        k(   24) = (  -0.0540920   0.1623884  -0.1082096), wk =   0.0009766
        k(   25) = (  -0.0541019   0.1082586  -0.0540997), wk =   0.0009766
        k(   26) = (  -0.1082235   0.1082577   0.0000204), wk =   0.0009766
        k(   27) = (  -0.1082334   0.0541279   0.0541302), wk =   0.0009766
        k(   28) = (  -0.1082433  -0.0000019   0.1082401), wk =   0.0009766
        k(   29) = (  -0.1082531  -0.0541317   0.1623500), wk =   0.0009766
        k(   30) = (  -0.1082630  -0.1082614   0.2164599), wk =   0.0009766
        k(   31) = (  -0.1082729  -0.1623912   0.2705698), wk =   0.0009766
        k(   32) = (  -0.1082827  -0.2165210   0.3246797), wk =   0.0009766
        k(   33) = (  -0.1082926  -0.2706507   0.3787896), wk =   0.0009766
        k(   34) = (  -0.1081446   0.5412958  -0.4328587), wk =   0.0009766
        k(   35) = (  -0.1081545   0.4871661  -0.3787488), wk =   0.0009766
        k(   36) = (  -0.1081643   0.4330363  -0.3246390), wk =   0.0009766
        k(   37) = (  -0.1081742   0.3789065  -0.2705291), wk =   0.0009766
        k(   38) = (  -0.1081841   0.3247767  -0.2164192), wk =   0.0009766
        k(   39) = (  -0.1081939   0.2706470  -0.1623093), wk =   0.0009766
        k(   40) = (  -0.1082038   0.2165172  -0.1081994), wk =   0.0009766
        k(   41) = (  -0.1082137   0.1623874  -0.0540895), wk =   0.0009766
        k(   42) = (  -0.1623353   0.1623865   0.0000305), wk =   0.0009766
        k(   43) = (  -0.1623452   0.1082567   0.0541404), wk =   0.0009766
        k(   44) = (  -0.1623550   0.0541270   0.1082503), wk =   0.0009766
        k(   45) = (  -0.1623649  -0.0000028   0.1623602), wk =   0.0009766
        k(   46) = (  -0.1623748  -0.0541326   0.2164701), wk =   0.0009766
        k(   47) = (  -0.1623846  -0.1082624   0.2705800), wk =   0.0009766
        k(   48) = (  -0.1623945  -0.1623921   0.3246899), wk =   0.0009766
        k(   49) = (  -0.1624044  -0.2165219   0.3787997), wk =   0.0009766
        k(   50) = (  -0.1622564   0.5954247  -0.4328486), wk =   0.0009766
        k(   51) = (  -0.1622662   0.5412949  -0.3787387), wk =   0.0009766
        k(   52) = (  -0.1622761   0.4871651  -0.3246288), wk =   0.0009766
        k(   53) = (  -0.1622860   0.4330354  -0.2705189), wk =   0.0009766
        k(   54) = (  -0.1622958   0.3789056  -0.2164090), wk =   0.0009766
        k(   55) = (  -0.1623057   0.3247758  -0.1622991), wk =   0.0009766
        k(   56) = (  -0.1623156   0.2706460  -0.1081892), wk =   0.0009766
        k(   57) = (  -0.1623254   0.2165163  -0.0540793), wk =   0.0009766
        k(   58) = (  -0.2164471   0.2165153   0.0000407), wk =   0.0009766
        k(   59) = (  -0.2164569   0.1623856   0.0541506), wk =   0.0009766
        k(   60) = (  -0.2164668   0.1082558   0.1082605), wk =   0.0009766
        k(   61) = (  -0.2164767   0.0541260   0.1623704), wk =   0.0009766
        k(   62) = (  -0.2164865  -0.0000038   0.2164803), wk =   0.0009766
        k(   63) = (  -0.2164964  -0.0541335   0.2705901), wk =   0.0009766
        k(   64) = (  -0.2165063  -0.1082633   0.3247000), wk =   0.0009766
        k(   65) = (  -0.2165161  -0.1623931   0.3788099), wk =   0.0009766
        k(   66) = (  -0.2163681   0.6495535  -0.4328384), wk =   0.0009766
        k(   67) = (  -0.2163780   0.5954237  -0.3787285), wk =   0.0009766
        k(   68) = (  -0.2163879   0.5412940  -0.3246186), wk =   0.0009766
        k(   69) = (  -0.2163977   0.4871642  -0.2705087), wk =   0.0009766
        k(   70) = (  -0.2164076   0.4330344  -0.2163988), wk =   0.0009766
        k(   71) = (  -0.2164175   0.3789046  -0.1622889), wk =   0.0009766
        k(   72) = (  -0.2164273   0.3247749  -0.1081791), wk =   0.0009766
        k(   73) = (  -0.2164372   0.2706451  -0.0540692), wk =   0.0009766
        k(   74) = (  -0.2705588   0.2706442   0.0000509), wk =   0.0009766
        k(   75) = (  -0.2705687   0.2165144   0.0541608), wk =   0.0009766
        k(   76) = (  -0.2705786   0.1623846   0.1082707), wk =   0.0009766
        k(   77) = (  -0.2705884   0.1082548   0.1623806), wk =   0.0009766
        k(   78) = (  -0.2705983   0.0541251   0.2164904), wk =   0.0009766
        k(   79) = (  -0.2706082  -0.0000047   0.2706003), wk =   0.0009766
        k(   80) = (  -0.2706180  -0.0541345   0.3247102), wk =   0.0009766
        k(   81) = (  -0.2706279  -0.1082642   0.3788201), wk =   0.0009766
        k(   82) = (  -0.2704799   0.7036823  -0.4328282), wk =   0.0009766
        k(   83) = (  -0.2704898   0.6495526  -0.3787183), wk =   0.0009766
        k(   84) = (  -0.2704996   0.5954228  -0.3246084), wk =   0.0009766
        k(   85) = (  -0.2705095   0.5412930  -0.2704985), wk =   0.0009766
        k(   86) = (  -0.2705194   0.4871632  -0.2163886), wk =   0.0009766
        k(   87) = (  -0.2705292   0.4330335  -0.1622788), wk =   0.0009766
        k(   88) = (  -0.2705391   0.3789037  -0.1081689), wk =   0.0009766
        k(   89) = (  -0.2705490   0.3247739  -0.0540590), wk =   0.0009766
        k(   90) = (  -0.3246706   0.3247730   0.0000611), wk =   0.0009766
        k(   91) = (  -0.3246805   0.2706432   0.0541710), wk =   0.0009766
        k(   92) = (  -0.3246903   0.2165134   0.1082808), wk =   0.0009766
        k(   93) = (  -0.3247002   0.1623837   0.1623907), wk =   0.0009766
        k(   94) = (  -0.3247101   0.1082539   0.2165006), wk =   0.0009766
        k(   95) = (  -0.3247199   0.0541241   0.2706105), wk =   0.0009766
        k(   96) = (  -0.3247298  -0.0000056   0.3247204), wk =   0.0009766
        k(   97) = (  -0.3247397  -0.0541354   0.3788303), wk =   0.0009766
        k(   98) = (  -0.3245917   0.7578112  -0.4328180), wk =   0.0009766
        k(   99) = (  -0.3246015   0.7036814  -0.3787081), wk =   0.0009766
        k(  100) = (  -0.3246114   0.6495516  -0.3245982), wk =   0.0009766
        k(  101) = (  -0.3246213   0.5954218  -0.2704884), wk =   0.0009766
        k(  102) = (  -0.3246311   0.5412921  -0.2163785), wk =   0.0009766
        k(  103) = (  -0.3246410   0.4871623  -0.1622686), wk =   0.0009766
        k(  104) = (  -0.3246509   0.4330325  -0.1081587), wk =   0.0009766
        k(  105) = (  -0.3246607   0.3789028  -0.0540488), wk =   0.0009766
        k(  106) = (  -0.3787824   0.3789018   0.0000713), wk =   0.0009766
        k(  107) = (  -0.3787922   0.3247721   0.0541811), wk =   0.0009766
        k(  108) = (  -0.3788021   0.2706423   0.1082910), wk =   0.0009766
        k(  109) = (  -0.3788120   0.2165125   0.1624009), wk =   0.0009766
        k(  110) = (  -0.3788218   0.1623827   0.2165108), wk =   0.0009766
        k(  111) = (  -0.3788317   0.1082530   0.2706207), wk =   0.0009766
        k(  112) = (  -0.3788415   0.0541232   0.3247306), wk =   0.0009766
        k(  113) = (  -0.3788514  -0.0000066   0.3788405), wk =   0.0009766
        k(  114) = (  -0.3787034   0.8119400  -0.4328078), wk =   0.0009766
        k(  115) = (  -0.3787133   0.7578102  -0.3786980), wk =   0.0009766
        k(  116) = (  -0.3787232   0.7036805  -0.3245881), wk =   0.0009766
        k(  117) = (  -0.3787330   0.6495507  -0.2704782), wk =   0.0009766
        k(  118) = (  -0.3787429   0.5954209  -0.2163683), wk =   0.0009766
        k(  119) = (  -0.3787528   0.5412911  -0.1622584), wk =   0.0009766
        k(  120) = (  -0.3787626   0.4871614  -0.1081485), wk =   0.0009766
        k(  121) = (  -0.3787725   0.4330316  -0.0540386), wk =   0.0009766
        k(  122) = (   0.4328941  -0.4330307  -0.0000814), wk =   0.0004883
        k(  123) = (   0.4328842  -0.4871604   0.0540285), wk =   0.0009766
        k(  124) = (   0.4328744  -0.5412902   0.1081383), wk =   0.0009766
        k(  125) = (   0.4328645  -0.5954200   0.1622482), wk =   0.0009766
        k(  126) = (   0.4328547  -0.6495497   0.2163581), wk =   0.0009766
        k(  127) = (   0.4328448  -0.7036795   0.2704680), wk =   0.0009766
        k(  128) = (   0.4328349  -0.7578093   0.3245779), wk =   0.0009766
        k(  129) = (   0.4328251  -0.8119391   0.3786878), wk =   0.0009766
        k(  130) = (   0.4329730   0.0000075  -0.4329605), wk =   0.0004883
        k(  131) = (   0.0541229  -0.0000091   0.0541204), wk =   0.0009766
        k(  132) = (   0.0541130  -0.0541389   0.1082303), wk =   0.0009766
        k(  133) = (   0.0541031  -0.1082686   0.1623401), wk =   0.0009766
        k(  134) = (   0.0540933  -0.1623984   0.2164500), wk =   0.0009766
        k(  135) = (   0.0540834  -0.2165282   0.2705599), wk =   0.0009766
        k(  136) = (   0.0540736  -0.2706579   0.3246698), wk =   0.0009766
        k(  137) = (   0.0540637  -0.3247877   0.3787797), wk =   0.0009766
        k(  138) = (   0.0540538  -0.3789175   0.4328896), wk =   0.0009766
        k(  139) = (   0.0542018   0.4330291  -0.3787587), wk =   0.0009766
        k(  140) = (   0.0541919   0.3788993  -0.3246488), wk =   0.0009766
        k(  141) = (   0.0541821   0.3247695  -0.2705389), wk =   0.0009766
        k(  142) = (   0.0541722   0.2706398  -0.2164291), wk =   0.0009766
        k(  143) = (   0.0541623   0.2165100  -0.1623192), wk =   0.0009766
        k(  144) = (   0.0541525   0.1623802  -0.1082093), wk =   0.0009766
        k(  145) = (   0.0541426   0.1082505  -0.0540994), wk =   0.0009766
        k(  146) = (   0.0541327   0.0541207   0.0000105), wk =   0.0009766
        k(  147) = (   0.0000111   0.0541197   0.0541306), wk =   0.0009766
        k(  148) = (   0.0000013  -0.0000100   0.1082404), wk =   0.0009766
        k(  149) = (  -0.0000086  -0.0541398   0.1623503), wk =   0.0009766
        k(  150) = (  -0.0000185  -0.1082696   0.2164602), wk =   0.0009766
        k(  151) = (  -0.0000283  -0.1623993   0.2705701), wk =   0.0009766
        k(  152) = (  -0.0000382  -0.2165291   0.3246800), wk =   0.0009766
        k(  153) = (  -0.0000481  -0.2706589   0.3787899), wk =   0.0009766
        k(  154) = (  -0.0000579  -0.3247886   0.4328998), wk =   0.0009766
        k(  155) = (   0.0000900   0.4871579  -0.3787485), wk =   0.0009766
        k(  156) = (   0.0000802   0.4330281  -0.3246386), wk =   0.0009766
        k(  157) = (   0.0000703   0.3788984  -0.2705288), wk =   0.0009766
        k(  158) = (   0.0000604   0.3247686  -0.2164189), wk =   0.0009766
        k(  159) = (   0.0000506   0.2706388  -0.1623090), wk =   0.0009766
        k(  160) = (   0.0000407   0.2165091  -0.1081991), wk =   0.0009766
        k(  161) = (   0.0000308   0.1623793  -0.0540892), wk =   0.0009766
        k(  162) = (   0.0000210   0.1082495   0.0000207), wk =   0.0009766
        k(  163) = (  -0.0541006   0.1082486   0.0541407), wk =   0.0009766
        k(  164) = (  -0.0541105   0.0541188   0.1082506), wk =   0.0009766
        k(  165) = (  -0.0541204  -0.0000110   0.1623605), wk =   0.0009766
        k(  166) = (  -0.0541302  -0.0541407   0.2164704), wk =   0.0009766
        k(  167) = (  -0.0541401  -0.1082705   0.2705803), wk =   0.0009766
        k(  168) = (  -0.0541500  -0.1624003   0.3246902), wk =   0.0009766
        k(  169) = (  -0.0541598  -0.2165300   0.3788000), wk =   0.0009766
        k(  170) = (  -0.0541697  -0.2706598   0.4329099), wk =   0.0009766
        k(  171) = (  -0.0540217   0.5412868  -0.3787384), wk =   0.0009766
        k(  172) = (  -0.0540316   0.4871570  -0.3246285), wk =   0.0009766
        k(  173) = (  -0.0540414   0.4330272  -0.2705186), wk =   0.0009766
        k(  174) = (  -0.0540513   0.3788974  -0.2164087), wk =   0.0009766
        k(  175) = (  -0.0540612   0.3247677  -0.1622988), wk =   0.0009766
        k(  176) = (  -0.0540710   0.2706379  -0.1081889), wk =   0.0009766
        k(  177) = (  -0.0540809   0.2165081  -0.0540790), wk =   0.0009766
        k(  178) = (  -0.0540908   0.1623784   0.0000308), wk =   0.0009766
        k(  179) = (  -0.1082124   0.1623774   0.0541509), wk =   0.0009766
        k(  180) = (  -0.1082223   0.1082476   0.1082608), wk =   0.0009766
        k(  181) = (  -0.1082321   0.0541179   0.1623707), wk =   0.0009766
        k(  182) = (  -0.1082420  -0.0000119   0.2164806), wk =   0.0009766
        k(  183) = (  -0.1082519  -0.0541417   0.2705905), wk =   0.0009766
        k(  184) = (  -0.1082617  -0.1082714   0.3247003), wk =   0.0009766
        k(  185) = (  -0.1082716  -0.1624012   0.3788102), wk =   0.0009766
        k(  186) = (  -0.1082815  -0.2165310   0.4329201), wk =   0.0009766
        k(  187) = (  -0.1081335   0.5954156  -0.3787282), wk =   0.0009766
        k(  188) = (  -0.1081433   0.5412858  -0.3246183), wk =   0.0009766
        k(  189) = (  -0.1081532   0.4871560  -0.2705084), wk =   0.0009766
        k(  190) = (  -0.1081631   0.4330263  -0.2163985), wk =   0.0009766
        k(  191) = (  -0.1081729   0.3788965  -0.1622886), wk =   0.0009766
        k(  192) = (  -0.1081828   0.3247667  -0.1081787), wk =   0.0009766
        k(  193) = (  -0.1081927   0.2706370  -0.0540689), wk =   0.0009766
        k(  194) = (  -0.1082025   0.2165072   0.0000410), wk =   0.0009766
        k(  195) = (  -0.1623242   0.2165062   0.0541611), wk =   0.0009766
        k(  196) = (  -0.1623340   0.1623765   0.1082710), wk =   0.0009766
        k(  197) = (  -0.1623439   0.1082467   0.1623809), wk =   0.0009766
        k(  198) = (  -0.1623538   0.0541169   0.2164907), wk =   0.0009766
        k(  199) = (  -0.1623636  -0.0000128   0.2706006), wk =   0.0009766
        k(  200) = (  -0.1623735  -0.0541426   0.3247105), wk =   0.0009766
        k(  201) = (  -0.1623834  -0.1082724   0.3788204), wk =   0.0009766
        k(  202) = (  -0.1623932  -0.1624022   0.4329303), wk =   0.0009766
        k(  203) = (  -0.1622452   0.6495444  -0.3787180), wk =   0.0009766
        k(  204) = (  -0.1622551   0.5954146  -0.3246081), wk =   0.0009766
        k(  205) = (  -0.1622650   0.5412849  -0.2704982), wk =   0.0009766
        k(  206) = (  -0.1622748   0.4871551  -0.2163883), wk =   0.0009766
        k(  207) = (  -0.1622847   0.4330253  -0.1622785), wk =   0.0009766
        k(  208) = (  -0.1622946   0.3788956  -0.1081686), wk =   0.0009766
        k(  209) = (  -0.1623044   0.3247658  -0.0540587), wk =   0.0009766
        k(  210) = (  -0.1623143   0.2706360   0.0000512), wk =   0.0009766
        k(  211) = (  -0.2164359   0.2706351   0.0541713), wk =   0.0009766
        k(  212) = (  -0.2164458   0.2165053   0.1082812), wk =   0.0009766
        k(  213) = (  -0.2164557   0.1623755   0.1623910), wk =   0.0009766
        k(  214) = (  -0.2164655   0.1082458   0.2165009), wk =   0.0009766
        k(  215) = (  -0.2164754   0.0541160   0.2706108), wk =   0.0009766
        k(  216) = (  -0.2164853  -0.0000138   0.3247207), wk =   0.0009766
        k(  217) = (  -0.2164951  -0.0541436   0.3788306), wk =   0.0009766
        k(  218) = (  -0.2165050  -0.1082733   0.4329405), wk =   0.0009766
        k(  219) = (  -0.2163570   0.7036732  -0.3787078), wk =   0.0009766
        k(  220) = (  -0.2163669   0.6495435  -0.3245979), wk =   0.0009766
        k(  221) = (  -0.2163767   0.5954137  -0.2704880), wk =   0.0009766
        k(  222) = (  -0.2163866   0.5412839  -0.2163782), wk =   0.0009766
        k(  223) = (  -0.2163965   0.4871542  -0.1622683), wk =   0.0009766
        k(  224) = (  -0.2164063   0.4330244  -0.1081584), wk =   0.0009766
        k(  225) = (  -0.2164162   0.3788946  -0.0540485), wk =   0.0009766
        k(  226) = (  -0.2164261   0.3247648   0.0000614), wk =   0.0009766
        k(  227) = (  -0.2705477   0.3247639   0.0541814), wk =   0.0009766
        k(  228) = (  -0.2705576   0.2706341   0.1082913), wk =   0.0009766
        k(  229) = (  -0.2705674   0.2165044   0.1624012), wk =   0.0009766
        k(  230) = (  -0.2705773   0.1623746   0.2165111), wk =   0.0009766
        k(  231) = (  -0.2705872   0.1082448   0.2706210), wk =   0.0009766
        k(  232) = (  -0.2705970   0.0541151   0.3247309), wk =   0.0009766
        k(  233) = (  -0.2706069  -0.0000147   0.3788408), wk =   0.0009766
        k(  234) = (  -0.2706168  -0.0541445   0.4329507), wk =   0.0009766
        k(  235) = (  -0.2704688   0.7578021  -0.3786976), wk =   0.0009766
        k(  236) = (  -0.2704786   0.7036723  -0.3245878), wk =   0.0009766
        k(  237) = (  -0.2704885   0.6495425  -0.2704779), wk =   0.0009766
        k(  238) = (  -0.2704984   0.5954128  -0.2163680), wk =   0.0009766
        k(  239) = (  -0.2705082   0.5412830  -0.1622581), wk =   0.0009766
        k(  240) = (  -0.2705181   0.4871532  -0.1081482), wk =   0.0009766
        k(  241) = (  -0.2705280   0.4330235  -0.0540383), wk =   0.0009766
        k(  242) = (  -0.2705378   0.3788937   0.0000716), wk =   0.0009766
        k(  243) = (  -0.3246595   0.3788927   0.0541916), wk =   0.0009766
        k(  244) = (  -0.3246693   0.3247630   0.1083015), wk =   0.0009766
        k(  245) = (  -0.3246792   0.2706332   0.1624114), wk =   0.0009766
        k(  246) = (  -0.3246891   0.2165034   0.2165213), wk =   0.0009766
        k(  247) = (  -0.3246989   0.1623737   0.2706312), wk =   0.0009766
        k(  248) = (  -0.3247088   0.1082439   0.3247411), wk =   0.0009766
        k(  249) = (  -0.3247187   0.0541141   0.3788509), wk =   0.0009766
        k(  250) = (  -0.3247285  -0.0000157   0.4329608), wk =   0.0009766
        k(  251) = (  -0.3245805   0.8119309  -0.3786875), wk =   0.0009766
        k(  252) = (  -0.3245904   0.7578011  -0.3245776), wk =   0.0009766
        k(  253) = (  -0.3246003   0.7036714  -0.2704677), wk =   0.0009766
        k(  254) = (  -0.3246101   0.6495416  -0.2163578), wk =   0.0009766
        k(  255) = (  -0.3246200   0.5954118  -0.1622479), wk =   0.0009766
        k(  256) = (  -0.3246299   0.5412821  -0.1081380), wk =   0.0009766
        k(  257) = (  -0.3246397   0.4871523  -0.0540281), wk =   0.0009766
        k(  258) = (  -0.3246496   0.4330225   0.0000817), wk =   0.0009766
        k(  259) = (   0.4870170  -0.4330397   0.0540389), wk =   0.0009766
        k(  260) = (   0.4870071  -0.4871695   0.1081488), wk =   0.0009766
        k(  261) = (   0.4869973  -0.5412993   0.1622587), wk =   0.0009766
        k(  262) = (   0.4869874  -0.5954291   0.2163686), wk =   0.0009766
        k(  263) = (   0.4869775  -0.6495588   0.2704785), wk =   0.0009766
        k(  264) = (   0.4869677  -0.7036886   0.3245884), wk =   0.0009766
        k(  265) = (   0.4869578  -0.7578184   0.3786983), wk =   0.0009766
        k(  266) = (   0.4869479  -0.8119481   0.4328081), wk =   0.0009766
        k(  267) = (   0.4870959  -0.0000016  -0.3788401), wk =   0.0009766
        k(  268) = (   0.4870861  -0.0541313  -0.3247303), wk =   0.0009766
        k(  269) = (   0.4870762  -0.1082611  -0.2706204), wk =   0.0009766
        k(  270) = (   0.4870663  -0.1623909  -0.2165105), wk =   0.0009766
        k(  271) = (   0.4870565  -0.2165207  -0.1624006), wk =   0.0009766
        k(  272) = (   0.4870466  -0.2706504  -0.1082907), wk =   0.0009766
        k(  273) = (   0.4870367  -0.3247802  -0.0541808), wk =   0.0009766
        k(  274) = (   0.4870269  -0.3789100  -0.0000709), wk =   0.0009766
        k(  275) = (   0.4329052  -0.3789109   0.0540491), wk =   0.0009766
        k(  276) = (   0.4328954  -0.4330407   0.1081590), wk =   0.0009766
        k(  277) = (   0.4328855  -0.4871704   0.1622689), wk =   0.0009766
        k(  278) = (   0.4328756  -0.5413002   0.2163788), wk =   0.0009766
        k(  279) = (   0.4328658  -0.5954300   0.2704887), wk =   0.0009766
        k(  280) = (   0.4328559  -0.6495598   0.3245986), wk =   0.0009766
        k(  281) = (   0.4328460  -0.7036895   0.3787084), wk =   0.0009766
        k(  282) = (   0.4328362  -0.7578193   0.4328183), wk =   0.0009766
        k(  283) = (   0.4329842   0.0541273  -0.3788300), wk =   0.0009766
        k(  284) = (   0.4329743  -0.0000025  -0.3247201), wk =   0.0009766
        k(  285) = (   0.4329644  -0.0541323  -0.2706102), wk =   0.0009766
        k(  286) = (   0.4329546  -0.1082620  -0.2165003), wk =   0.0009766
        k(  287) = (   0.4329447  -0.1623918  -0.1623904), wk =   0.0009766
        k(  288) = (   0.4329348  -0.2165216  -0.1082805), wk =   0.0009766
        k(  289) = (   0.4329250  -0.2706514  -0.0541706), wk =   0.0009766
        k(  290) = (   0.4329151  -0.3247811  -0.0000608), wk =   0.0009766
        k(  291) = (   0.3787935  -0.3247821   0.0540593), wk =   0.0009766
        k(  292) = (   0.3787836  -0.3789118   0.1081692), wk =   0.0009766
        k(  293) = (   0.3787737  -0.4330416   0.1622791), wk =   0.0009766
        k(  294) = (   0.3787639  -0.4871714   0.2163890), wk =   0.0009766
        k(  295) = (   0.3787540  -0.5413012   0.2704988), wk =   0.0009766
        k(  296) = (   0.3787441  -0.5954309   0.3246087), wk =   0.0009766
        k(  297) = (   0.3787343  -0.6495607   0.3787186), wk =   0.0009766
        k(  298) = (   0.3787244  -0.7036905   0.4328285), wk =   0.0009766
        k(  299) = (   0.3788724   0.1082561  -0.3788198), wk =   0.0009766
        k(  300) = (   0.3788625   0.0541263  -0.3247099), wk =   0.0009766
        k(  301) = (   0.3788527  -0.0000034  -0.2706000), wk =   0.0009766
        k(  302) = (   0.3788428  -0.0541332  -0.2164901), wk =   0.0009766
        k(  303) = (   0.3788329  -0.1082630  -0.1623802), wk =   0.0009766
        k(  304) = (   0.3788231  -0.1623928  -0.1082704), wk =   0.0009766
        k(  305) = (   0.3788132  -0.2165225  -0.0541605), wk =   0.0009766
        k(  306) = (   0.3788033  -0.2706523  -0.0000506), wk =   0.0009766
        k(  307) = (   0.3246817  -0.2706532   0.0540695), wk =   0.0009766
        k(  308) = (   0.3246718  -0.3247830   0.1081794), wk =   0.0009766
        k(  309) = (   0.3246620  -0.3789128   0.1622893), wk =   0.0009766
        k(  310) = (   0.3246521  -0.4330426   0.2163991), wk =   0.0009766
        k(  311) = (   0.3246422  -0.4871723   0.2705090), wk =   0.0009766
        k(  312) = (   0.3246324  -0.5413021   0.3246189), wk =   0.0009766
        k(  313) = (   0.3246225  -0.5954319   0.3787288), wk =   0.0009766
        k(  314) = (   0.3246126  -0.6495616   0.4328387), wk =   0.0009766
        k(  315) = (   0.3247606   0.1623849  -0.3788096), wk =   0.0009766
        k(  316) = (   0.3247508   0.1082552  -0.3246997), wk =   0.0009766
        k(  317) = (   0.3247409   0.0541254  -0.2705898), wk =   0.0009766
        k(  318) = (   0.3247310  -0.0000044  -0.2164799), wk =   0.0009766
        k(  319) = (   0.3247212  -0.0541342  -0.1623701), wk =   0.0009766
        k(  320) = (   0.3247113  -0.1082639  -0.1082602), wk =   0.0009766
        k(  321) = (   0.3247014  -0.1623937  -0.0541503), wk =   0.0009766
        k(  322) = (   0.3246916  -0.2165235  -0.0000404), wk =   0.0009766
        k(  323) = (   0.2705699  -0.2165244   0.0540797), wk =   0.0009766
        k(  324) = (   0.2705601  -0.2706542   0.1081895), wk =   0.0009766
        k(  325) = (   0.2705502  -0.3247840   0.1622994), wk =   0.0009766
        k(  326) = (   0.2705403  -0.3789137   0.2164093), wk =   0.0009766
        k(  327) = (   0.2705305  -0.4330435   0.2705192), wk =   0.0009766
        k(  328) = (   0.2705206  -0.4871733   0.3246291), wk =   0.0009766
        k(  329) = (   0.2705107  -0.5413030   0.3787390), wk =   0.0009766
        k(  330) = (   0.2705009  -0.5954328   0.4328489), wk =   0.0009766
        k(  331) = (   0.2706489   0.2165138  -0.3787994), wk =   0.0009766
        k(  332) = (   0.2706390   0.1623840  -0.3246895), wk =   0.0009766
        k(  333) = (   0.2706291   0.1082542  -0.2705797), wk =   0.0009766
        k(  334) = (   0.2706193   0.0541244  -0.2164698), wk =   0.0009766
        k(  335) = (   0.2706094  -0.0000053  -0.1623599), wk =   0.0009766
        k(  336) = (   0.2705995  -0.0541351  -0.1082500), wk =   0.0009766
        k(  337) = (   0.2705897  -0.1082649  -0.0541401), wk =   0.0009766
        k(  338) = (   0.2705798  -0.1623946  -0.0000302), wk =   0.0009766
        k(  339) = (   0.2164582  -0.1623956   0.0540898), wk =   0.0009766
        k(  340) = (   0.2164483  -0.2165253   0.1081997), wk =   0.0009766
        k(  341) = (   0.2164384  -0.2706551   0.1623096), wk =   0.0009766
        k(  342) = (   0.2164286  -0.3247849   0.2164195), wk =   0.0009766
        k(  343) = (   0.2164187  -0.3789147   0.2705294), wk =   0.0009766
        k(  344) = (   0.2164088  -0.4330444   0.3246393), wk =   0.0009766
        k(  345) = (   0.2163990  -0.4871742   0.3787492), wk =   0.0009766
        k(  346) = (   0.2163891  -0.5413040   0.4328590), wk =   0.0009766
        k(  347) = (   0.2165371   0.2706426  -0.3787892), wk =   0.0009766
        k(  348) = (   0.2165272   0.2165128  -0.3246794), wk =   0.0009766
        k(  349) = (   0.2165174   0.1623831  -0.2705695), wk =   0.0009766
        k(  350) = (   0.2165075   0.1082533  -0.2164596), wk =   0.0009766
        k(  351) = (   0.2164976   0.0541235  -0.1623497), wk =   0.0009766
        k(  352) = (   0.2164878  -0.0000063  -0.1082398), wk =   0.0009766
        k(  353) = (   0.2164779  -0.0541360  -0.0541299), wk =   0.0009766
        k(  354) = (   0.2164680  -0.1082658  -0.0000200), wk =   0.0009766
        k(  355) = (   0.1623464  -0.1082667   0.0541000), wk =   0.0009766
        k(  356) = (   0.1623365  -0.1623965   0.1082099), wk =   0.0009766
        k(  357) = (   0.1623267  -0.2165263   0.1623198), wk =   0.0009766
        k(  358) = (   0.1623168  -0.2706561   0.2164297), wk =   0.0009766
        k(  359) = (   0.1623069  -0.3247858   0.2705396), wk =   0.0009766
        k(  360) = (   0.1622971  -0.3789156   0.3246494), wk =   0.0009766
        k(  361) = (   0.1622872  -0.4330454   0.3787593), wk =   0.0009766
        k(  362) = (   0.1622773  -0.4871751   0.4328692), wk =   0.0009766
        k(  363) = (   0.1624253   0.3247714  -0.3787791), wk =   0.0009766
        k(  364) = (   0.1624155   0.2706417  -0.3246692), wk =   0.0009766
        k(  365) = (   0.1624056   0.2165119  -0.2705593), wk =   0.0009766
        k(  366) = (   0.1623957   0.1623821  -0.2164494), wk =   0.0009766
        k(  367) = (   0.1623859   0.1082523  -0.1623395), wk =   0.0009766
        k(  368) = (   0.1623760   0.0541226  -0.1082296), wk =   0.0009766
        k(  369) = (   0.1623661  -0.0000072  -0.0541198), wk =   0.0009766
        k(  370) = (   0.1623563  -0.0541370  -0.0000099), wk =   0.0009766
        k(  371) = (   0.1082346  -0.0541379   0.0541102), wk =   0.0009766
        k(  372) = (   0.1082248  -0.1082677   0.1082201), wk =   0.0009766
        k(  373) = (   0.1082149  -0.1623975   0.1623300), wk =   0.0009766
        k(  374) = (   0.1082050  -0.2165272   0.2164399), wk =   0.0009766
        k(  375) = (   0.1081952  -0.2706570   0.2705497), wk =   0.0009766
        k(  376) = (   0.1081853  -0.3247868   0.3246596), wk =   0.0009766
        k(  377) = (   0.1081754  -0.3789165   0.3787695), wk =   0.0009766
        k(  378) = (   0.1081656  -0.4330463   0.4328794), wk =   0.0009766
        k(  379) = (   0.1083136   0.3789003  -0.3787689), wk =   0.0009766
        k(  380) = (   0.1083037   0.3247705  -0.3246590), wk =   0.0009766
        k(  381) = (   0.1082938   0.2706407  -0.2705491), wk =   0.0009766
        k(  382) = (   0.1082840   0.2165109  -0.2164392), wk =   0.0009766
        k(  383) = (   0.1082741   0.1623812  -0.1623293), wk =   0.0009766
        k(  384) = (   0.1082642   0.1082514  -0.1082195), wk =   0.0009766
        k(  385) = (   0.1082544   0.0541216  -0.0541096), wk =   0.0009766
        k(  386) = (   0.1082445  -0.0000081   0.0000003), wk =   0.0009766
        k(  387) = (   0.1082458  -0.0000182   0.1082408), wk =   0.0009766
        k(  388) = (   0.1082359  -0.0541479   0.1623506), wk =   0.0009766
        k(  389) = (   0.1082260  -0.1082777   0.2164605), wk =   0.0009766
        k(  390) = (   0.1082162  -0.1624075   0.2705704), wk =   0.0009766
        k(  391) = (   0.1082063  -0.2165372   0.3246803), wk =   0.0009766
        k(  392) = (   0.1081964  -0.2706670   0.3787902), wk =   0.0009766
        k(  393) = (   0.1081866  -0.3247968   0.4329001), wk =   0.0009766
        k(  394) = (   0.1081767  -0.3789266   0.4870100), wk =   0.0009766
        k(  395) = (   0.1083247   0.4330200  -0.3246383), wk =   0.0009766
        k(  396) = (   0.1083148   0.3788902  -0.2705284), wk =   0.0009766
        k(  397) = (   0.1083050   0.3247605  -0.2164186), wk =   0.0009766
        k(  398) = (   0.1082951   0.2706307  -0.1623087), wk =   0.0009766
        k(  399) = (   0.1082852   0.2165009  -0.1081988), wk =   0.0009766
        k(  400) = (   0.1082754   0.1623711  -0.0540889), wk =   0.0009766
        k(  401) = (   0.1082655   0.1082414   0.0000210), wk =   0.0009766
        k(  402) = (   0.1082556   0.0541116   0.0541309), wk =   0.0009766
        k(  403) = (   0.0541340   0.0541107   0.1082509), wk =   0.0009766
        k(  404) = (   0.0541241  -0.0000191   0.1623608), wk =   0.0009766
        k(  405) = (   0.0541143  -0.0541489   0.2164707), wk =   0.0009766
        k(  406) = (   0.0541044  -0.1082786   0.2705806), wk =   0.0009766
        k(  407) = (   0.0540945  -0.1624084   0.3246905), wk =   0.0009766
        k(  408) = (   0.0540847  -0.2165382   0.3788004), wk =   0.0009766
        k(  409) = (   0.0540748  -0.2706680   0.4329102), wk =   0.0009766
        k(  410) = (   0.0540649  -0.3247977   0.4870201), wk =   0.0009766
        k(  411) = (   0.0542129   0.4871488  -0.3246282), wk =   0.0009766
        k(  412) = (   0.0542031   0.4330191  -0.2705183), wk =   0.0009766
        k(  413) = (   0.0541932   0.3788893  -0.2164084), wk =   0.0009766
        k(  414) = (   0.0541833   0.3247595  -0.1622985), wk =   0.0009766
        k(  415) = (   0.0541735   0.2706298  -0.1081886), wk =   0.0009766
        k(  416) = (   0.0541636   0.2165000  -0.0540787), wk =   0.0009766
        k(  417) = (   0.0541537   0.1623702   0.0000312), wk =   0.0009766
        k(  418) = (   0.0541439   0.1082404   0.0541410), wk =   0.0009766
        k(  419) = (   0.0000222   0.1082395   0.1082611), wk =   0.0009766
        k(  420) = (   0.0000124   0.0541097   0.1623710), wk =   0.0009766
        k(  421) = (   0.0000025  -0.0000200   0.2164809), wk =   0.0009766
        k(  422) = (  -0.0000074  -0.0541498   0.2705908), wk =   0.0009766
        k(  423) = (  -0.0000172  -0.1082796   0.3247007), wk =   0.0009766
        k(  424) = (  -0.0000271  -0.1624094   0.3788105), wk =   0.0009766
        k(  425) = (  -0.0000370  -0.2165391   0.4329204), wk =   0.0009766
        k(  426) = (  -0.0000468  -0.2706689   0.4870303), wk =   0.0009766
        k(  427) = (   0.0001012   0.5412777  -0.3246180), wk =   0.0009766
        k(  428) = (   0.0000913   0.4871479  -0.2705081), wk =   0.0009766
        k(  429) = (   0.0000814   0.4330181  -0.2163982), wk =   0.0009766
        k(  430) = (   0.0000716   0.3788884  -0.1622883), wk =   0.0009766
        k(  431) = (   0.0000617   0.3247586  -0.1081784), wk =   0.0009766
        k(  432) = (   0.0000518   0.2706288  -0.0540685), wk =   0.0009766
        k(  433) = (   0.0000420   0.2164990   0.0000413), wk =   0.0009766
        k(  434) = (   0.0000321   0.1623693   0.0541512), wk =   0.0009766
        k(  435) = (  -0.0540895   0.1623683   0.1082713), wk =   0.0009766
        k(  436) = (  -0.0540994   0.1082386   0.1623812), wk =   0.0009766
        k(  437) = (  -0.0541093   0.0541088   0.2164911), wk =   0.0009766
        k(  438) = (  -0.0541191  -0.0000210   0.2706009), wk =   0.0009766
        k(  439) = (  -0.0541290  -0.0541508   0.3247108), wk =   0.0009766
        k(  440) = (  -0.0541389  -0.1082805   0.3788207), wk =   0.0009766
        k(  441) = (  -0.0541487  -0.1624103   0.4329306), wk =   0.0009766
        k(  442) = (  -0.0541586  -0.2165401   0.4870405), wk =   0.0009766
        k(  443) = (  -0.0540106   0.5954065  -0.3246078), wk =   0.0009766
        k(  444) = (  -0.0540205   0.5412767  -0.2704979), wk =   0.0009766
        k(  445) = (  -0.0540303   0.4871470  -0.2163880), wk =   0.0009766
        k(  446) = (  -0.0540402   0.4330172  -0.1622781), wk =   0.0009766
        k(  447) = (  -0.0540501   0.3788874  -0.1081683), wk =   0.0009766
        k(  448) = (  -0.0540599   0.3247576  -0.0540584), wk =   0.0009766
        k(  449) = (  -0.0540698   0.2706279   0.0000515), wk =   0.0009766
        k(  450) = (  -0.0540797   0.2164981   0.0541614), wk =   0.0009766
        k(  451) = (  -0.1082013   0.2164972   0.1082815), wk =   0.0009766
        k(  452) = (  -0.1082112   0.1623674   0.1623914), wk =   0.0009766
        k(  453) = (  -0.1082210   0.1082376   0.2165012), wk =   0.0009766
        k(  454) = (  -0.1082309   0.0541078   0.2706111), wk =   0.0009766
        k(  455) = (  -0.1082408  -0.0000219   0.3247210), wk =   0.0009766
        k(  456) = (  -0.1082506  -0.0541517   0.3788309), wk =   0.0009766
        k(  457) = (  -0.1082605  -0.1082815   0.4329408), wk =   0.0009766
        k(  458) = (  -0.1082704  -0.1624112   0.4870507), wk =   0.0009766
        k(  459) = (  -0.1081224   0.6495353  -0.3245976), wk =   0.0009766
        k(  460) = (  -0.1081322   0.5954056  -0.2704877), wk =   0.0009766
        k(  461) = (  -0.1081421   0.5412758  -0.2163778), wk =   0.0009766
        k(  462) = (  -0.1081520   0.4871460  -0.1622680), wk =   0.0009766
        k(  463) = (  -0.1081618   0.4330162  -0.1081581), wk =   0.0009766
        k(  464) = (  -0.1081717   0.3788865  -0.0540482), wk =   0.0009766
        k(  465) = (  -0.1081816   0.3247567   0.0000617), wk =   0.0009766
        k(  466) = (  -0.1081914   0.2706269   0.0541716), wk =   0.0009766
        k(  467) = (  -0.1623131   0.2706260   0.1082916), wk =   0.0009766
        k(  468) = (  -0.1623229   0.2164962   0.1624015), wk =   0.0009766
        k(  469) = (  -0.1623328   0.1623665   0.2165114), wk =   0.0009766
        k(  470) = (  -0.1623427   0.1082367   0.2706213), wk =   0.0009766
        k(  471) = (  -0.1623525   0.0541069   0.3247312), wk =   0.0009766
        k(  472) = (  -0.1623624  -0.0000229   0.3788411), wk =   0.0009766
        k(  473) = (  -0.1623723  -0.0541526   0.4329510), wk =   0.0009766
        k(  474) = (  -0.1623821  -0.1082824   0.4870608), wk =   0.0009766
        k(  475) = (  -0.1622341   0.7036642  -0.3245874), wk =   0.0009766
        k(  476) = (  -0.1622440   0.6495344  -0.2704776), wk =   0.0009766
        k(  477) = (  -0.1622539   0.5954046  -0.2163677), wk =   0.0009766
        k(  478) = (  -0.1622637   0.5412749  -0.1622578), wk =   0.0009766
        k(  479) = (  -0.1622736   0.4871451  -0.1081479), wk =   0.0009766
        k(  480) = (  -0.1622835   0.4330153  -0.0540380), wk =   0.0009766
        k(  481) = (  -0.1622933   0.3788855   0.0000719), wk =   0.0009766
        k(  482) = (  -0.1623032   0.3247558   0.0541818), wk =   0.0009766
        k(  483) = (  -0.2164248   0.3247548   0.1083018), wk =   0.0009766
        k(  484) = (  -0.2164347   0.2706251   0.1624117), wk =   0.0009766
        k(  485) = (  -0.2164446   0.2164953   0.2165216), wk =   0.0009766
        k(  486) = (  -0.2164544   0.1623655   0.2706315), wk =   0.0009766
        k(  487) = (  -0.2164643   0.1082357   0.3247414), wk =   0.0009766
        k(  488) = (  -0.2164742   0.0541060   0.3788513), wk =   0.0009766
        k(  489) = (  -0.2164840  -0.0000238   0.4329611), wk =   0.0009766
        k(  490) = (  -0.2164939  -0.0541536   0.4870710), wk =   0.0009766
        k(  491) = (  -0.2163459   0.7577930  -0.3245773), wk =   0.0009766
        k(  492) = (  -0.2163558   0.7036632  -0.2704674), wk =   0.0009766
        k(  493) = (  -0.2163656   0.6495335  -0.2163575), wk =   0.0009766
        k(  494) = (  -0.2163755   0.5954037  -0.1622476), wk =   0.0009766
        k(  495) = (  -0.2163854   0.5412739  -0.1081377), wk =   0.0009766
        k(  496) = (  -0.2163952   0.4871441  -0.0540278), wk =   0.0009766
        k(  497) = (  -0.2164051   0.4330144   0.0000821), wk =   0.0009766
        k(  498) = (  -0.2164150   0.3788846   0.0541919), wk =   0.0009766
        k(  499) = (  -0.2705366   0.3788837   0.1083120), wk =   0.0009766
        k(  500) = (  -0.2705465   0.3247539   0.1624219), wk =   0.0009766
        k(  501) = (  -0.2705563   0.2706241   0.2165318), wk =   0.0009766
        k(  502) = (  -0.2705662   0.2164943   0.2706417), wk =   0.0009766
        k(  503) = (  -0.2705761   0.1623646   0.3247515), wk =   0.0009766
        k(  504) = (  -0.2705859   0.1082348   0.3788614), wk =   0.0009766
        k(  505) = (  -0.2705958   0.0541050   0.4329713), wk =   0.0009766
        k(  506) = (  -0.2706057  -0.0000247   0.4870812), wk =   0.0009766
        k(  507) = (  -0.2704577   0.8119218  -0.3245671), wk =   0.0009766
        k(  508) = (  -0.2704675   0.7577921  -0.2704572), wk =   0.0009766
        k(  509) = (  -0.2704774   0.7036623  -0.2163473), wk =   0.0009766
        k(  510) = (  -0.2704873   0.6495325  -0.1622374), wk =   0.0009766
        k(  511) = (  -0.2704971   0.5954027  -0.1081275), wk =   0.0009766
        k(  512) = (  -0.2705070   0.5412730  -0.0540177), wk =   0.0009766
        k(  513) = (  -0.2705169   0.4871432   0.0000922), wk =   0.0009766
        k(  514) = (  -0.2705267   0.4330134   0.0542021), wk =   0.0009766
        k(  515) = (   0.5411399  -0.4330488   0.1081593), wk =   0.0009766
        k(  516) = (   0.5411300  -0.4871786   0.1622692), wk =   0.0009766
        k(  517) = (   0.5411201  -0.5413084   0.2163791), wk =   0.0009766
        k(  518) = (   0.5411103  -0.5954381   0.2704890), wk =   0.0009766
        k(  519) = (   0.5411004  -0.6495679   0.3245989), wk =   0.0009766
        k(  520) = (   0.5410905  -0.7036977   0.3787088), wk =   0.0009766
        k(  521) = (   0.5410807  -0.7578274   0.4328186), wk =   0.0009766
        k(  522) = (   0.5410708  -0.8119572   0.4869285), wk =   0.0009766
        k(  523) = (   0.5412188  -0.0000106  -0.3247198), wk =   0.0009766
        k(  524) = (   0.5412089  -0.0541404  -0.2706099), wk =   0.0009766
        k(  525) = (   0.5411991  -0.1082702  -0.2165000), wk =   0.0009766
        k(  526) = (   0.5411892  -0.1624000  -0.1623901), wk =   0.0009766
        k(  527) = (   0.5411793  -0.2165297  -0.1082802), wk =   0.0009766
        k(  528) = (   0.5411695  -0.2706595  -0.0541703), wk =   0.0009766
        k(  529) = (   0.5411596  -0.3247893  -0.0000604), wk =   0.0009766
        k(  530) = (   0.5411497  -0.3789190   0.0540494), wk =   0.0009766
        k(  531) = (   0.4870281  -0.3789200   0.1081695), wk =   0.0009766
        k(  532) = (   0.4870182  -0.4330498   0.1622794), wk =   0.0009766
        k(  533) = (   0.4870084  -0.4871795   0.2163893), wk =   0.0009766
        k(  534) = (   0.4869985  -0.5413093   0.2704992), wk =   0.0009766
        k(  535) = (   0.4869886  -0.5954391   0.3246090), wk =   0.0009766
        k(  536) = (   0.4869788  -0.6495688   0.3787189), wk =   0.0009766
        k(  537) = (   0.4869689  -0.7036986   0.4328288), wk =   0.0009766
        k(  538) = (   0.4869591  -0.7578284   0.4869387), wk =   0.0009766
        k(  539) = (   0.4871070   0.0541182  -0.3247096), wk =   0.0009766
        k(  540) = (   0.4870972  -0.0000116  -0.2705997), wk =   0.0009766
        k(  541) = (   0.4870873  -0.0541414  -0.2164898), wk =   0.0009766
        k(  542) = (   0.4870774  -0.1082711  -0.1623799), wk =   0.0009766
        k(  543) = (   0.4870676  -0.1624009  -0.1082700), wk =   0.0009766
        k(  544) = (   0.4870577  -0.2165307  -0.0541602), wk =   0.0009766
        k(  545) = (   0.4870478  -0.2706604  -0.0000503), wk =   0.0009766
        k(  546) = (   0.4870380  -0.3247902   0.0540596), wk =   0.0009766
        k(  547) = (   0.4329164  -0.3247912   0.1081797), wk =   0.0009766
        k(  548) = (   0.4329065  -0.3789209   0.1622896), wk =   0.0009766
        k(  549) = (   0.4328966  -0.4330507   0.2163995), wk =   0.0009766
        k(  550) = (   0.4328868  -0.4871805   0.2705093), wk =   0.0009766
        k(  551) = (   0.4328769  -0.5413102   0.3246192), wk =   0.0009766
        k(  552) = (   0.4328670  -0.5954400   0.3787291), wk =   0.0009766
        k(  553) = (   0.4328572  -0.6495698   0.4328390), wk =   0.0009766
        k(  554) = (   0.4328473  -0.7036996   0.4869489), wk =   0.0009766
        k(  555) = (   0.4329953   0.1082470  -0.3246994), wk =   0.0009766
        k(  556) = (   0.4329854   0.0541172  -0.2705895), wk =   0.0009766
        k(  557) = (   0.4329755  -0.0000125  -0.2164796), wk =   0.0009766
        k(  558) = (   0.4329657  -0.0541423  -0.1623697), wk =   0.0009766
        k(  559) = (   0.4329558  -0.1082721  -0.1082599), wk =   0.0009766
        k(  560) = (   0.4329459  -0.1624018  -0.0541500), wk =   0.0009766
        k(  561) = (   0.4329361  -0.2165316  -0.0000401), wk =   0.0009766
        k(  562) = (   0.4329262  -0.2706614   0.0540698), wk =   0.0009766
        k(  563) = (   0.3788046  -0.2706623   0.1081899), wk =   0.0009766
        k(  564) = (   0.3787947  -0.3247921   0.1622997), wk =   0.0009766
        k(  565) = (   0.3787849  -0.3789219   0.2164096), wk =   0.0009766
        k(  566) = (   0.3787750  -0.4330516   0.2705195), wk =   0.0009766
        k(  567) = (   0.3787651  -0.4871814   0.3246294), wk =   0.0009766
        k(  568) = (   0.3787553  -0.5413112   0.3787393), wk =   0.0009766
        k(  569) = (   0.3787454  -0.5954410   0.4328492), wk =   0.0009766
        k(  570) = (   0.3787355  -0.6495707   0.4869591), wk =   0.0009766
        k(  571) = (   0.3788835   0.1623758  -0.3246892), wk =   0.0009766
        k(  572) = (   0.3788736   0.1082461  -0.2705793), wk =   0.0009766
        k(  573) = (   0.3788638   0.0541163  -0.2164695), wk =   0.0009766
        k(  574) = (   0.3788539  -0.0000135  -0.1623596), wk =   0.0009766
        k(  575) = (   0.3788441  -0.0541432  -0.1082497), wk =   0.0009766
        k(  576) = (   0.3788342  -0.1082730  -0.0541398), wk =   0.0009766
        k(  577) = (   0.3788243  -0.1624028  -0.0000299), wk =   0.0009766
        k(  578) = (   0.3788145  -0.2165326   0.0540800), wk =   0.0009766
        k(  579) = (   0.3246928  -0.2165335   0.1082000), wk =   0.0009766
        k(  580) = (   0.3246830  -0.2706633   0.1623099), wk =   0.0009766
        k(  581) = (   0.3246731  -0.3247930   0.2164198), wk =   0.0009766
        k(  582) = (   0.3246632  -0.3789228   0.2705297), wk =   0.0009766
        k(  583) = (   0.3246534  -0.4330526   0.3246396), wk =   0.0009766
        k(  584) = (   0.3246435  -0.4871823   0.3787495), wk =   0.0009766
        k(  585) = (   0.3246336  -0.5413121   0.4328594), wk =   0.0009766
        k(  586) = (   0.3246238  -0.5954419   0.4869692), wk =   0.0009766
        k(  587) = (   0.3247718   0.2165047  -0.3246790), wk =   0.0009766
        k(  588) = (   0.3247619   0.1623749  -0.2705692), wk =   0.0009766
        k(  589) = (   0.3247520   0.1082451  -0.2164593), wk =   0.0009766
        k(  590) = (   0.3247422   0.0541154  -0.1623494), wk =   0.0009766
        k(  591) = (   0.3247323  -0.0000144  -0.1082395), wk =   0.0009766
        k(  592) = (   0.3247224  -0.0541442  -0.0541296), wk =   0.0009766
        k(  593) = (   0.3247126  -0.1082739  -0.0000197), wk =   0.0009766
        k(  594) = (   0.3247027  -0.1624037   0.0540902), wk =   0.0009766
        k(  595) = (   0.2705811  -0.1624047   0.1082102), wk =   0.0009766
        k(  596) = (   0.2705712  -0.2165344   0.1623201), wk =   0.0009766
        k(  597) = (   0.2705613  -0.2706642   0.2164300), wk =   0.0009766
        k(  598) = (   0.2705515  -0.3247940   0.2705399), wk =   0.0009766
        k(  599) = (   0.2705416  -0.3789237   0.3246498), wk =   0.0009766
        k(  600) = (   0.2705317  -0.4330535   0.3787596), wk =   0.0009766
        k(  601) = (   0.2705219  -0.4871833   0.4328695), wk =   0.0009766
        k(  602) = (   0.2705120  -0.5413131   0.4869794), wk =   0.0009766
        k(  603) = (   0.2706600   0.2706335  -0.3246689), wk =   0.0009766
        k(  604) = (   0.2706501   0.2165037  -0.2705590), wk =   0.0009766
        k(  605) = (   0.2706403   0.1623740  -0.2164491), wk =   0.0009766
        k(  606) = (   0.2706304   0.1082442  -0.1623392), wk =   0.0009766
        k(  607) = (   0.2706205   0.0541144  -0.1082293), wk =   0.0009766
        k(  608) = (   0.2706107  -0.0000153  -0.0541194), wk =   0.0009766
        k(  609) = (   0.2706008  -0.0541451  -0.0000096), wk =   0.0009766
        k(  610) = (   0.2705909  -0.1082749   0.0541003), wk =   0.0009766
        k(  611) = (   0.2164693  -0.1082758   0.1082204), wk =   0.0009766
        k(  612) = (   0.2164594  -0.1624056   0.1623303), wk =   0.0009766
        k(  613) = (   0.2164496  -0.2165354   0.2164402), wk =   0.0009766
        k(  614) = (   0.2164397  -0.2706651   0.2705501), wk =   0.0009766
        k(  615) = (   0.2164298  -0.3247949   0.3246599), wk =   0.0009766
        k(  616) = (   0.2164200  -0.3789247   0.3787698), wk =   0.0009766
        k(  617) = (   0.2164101  -0.4330545   0.4328797), wk =   0.0009766
        k(  618) = (   0.2164002  -0.4871842   0.4869896), wk =   0.0009766
        k(  619) = (   0.2165482   0.3247623  -0.3246587), wk =   0.0009766
        k(  620) = (   0.2165384   0.2706326  -0.2705488), wk =   0.0009766
        k(  621) = (   0.2165285   0.2165028  -0.2164389), wk =   0.0009766
        k(  622) = (   0.2165186   0.1623730  -0.1623290), wk =   0.0009766
        k(  623) = (   0.2165088   0.1082433  -0.1082191), wk =   0.0009766
        k(  624) = (   0.2164989   0.0541135  -0.0541093), wk =   0.0009766
        k(  625) = (   0.2164890  -0.0000163   0.0000006), wk =   0.0009766
        k(  626) = (   0.2164792  -0.0541461   0.0541105), wk =   0.0009766
        k(  627) = (   0.1623575  -0.0541470   0.1082306), wk =   0.0009766
        k(  628) = (   0.1623477  -0.1082768   0.1623405), wk =   0.0009766
        k(  629) = (   0.1623378  -0.1624065   0.2164503), wk =   0.0009766
        k(  630) = (   0.1623279  -0.2165363   0.2705602), wk =   0.0009766
        k(  631) = (   0.1623181  -0.2706661   0.3246701), wk =   0.0009766
        k(  632) = (   0.1623082  -0.3247959   0.3787800), wk =   0.0009766
        k(  633) = (   0.1622983  -0.3789256   0.4328899), wk =   0.0009766
        k(  634) = (   0.1622885  -0.4330554   0.4869998), wk =   0.0009766
        k(  635) = (   0.1624365   0.3788912  -0.3246485), wk =   0.0009766
        k(  636) = (   0.1624266   0.3247614  -0.2705386), wk =   0.0009766
        k(  637) = (   0.1624167   0.2706316  -0.2164287), wk =   0.0009766
        k(  638) = (   0.1624069   0.2165019  -0.1623189), wk =   0.0009766
        k(  639) = (   0.1623970   0.1623721  -0.1082090), wk =   0.0009766
        k(  640) = (   0.1623871   0.1082423  -0.0540991), wk =   0.0009766
        k(  641) = (   0.1623773   0.0541125   0.0000108), wk =   0.0009766
        k(  642) = (   0.1623674  -0.0000172   0.0541207), wk =   0.0009766
        k(  643) = (   0.1623686  -0.0000272   0.1623611), wk =   0.0009766
        k(  644) = (   0.1623588  -0.0541570   0.2164710), wk =   0.0009766
        k(  645) = (   0.1623489  -0.1082868   0.2705809), wk =   0.0009766
        k(  646) = (   0.1623390  -0.1624166   0.3246908), wk =   0.0009766
        k(  647) = (   0.1623292  -0.2165463   0.3788007), wk =   0.0009766
        k(  648) = (   0.1623193  -0.2706761   0.4329106), wk =   0.0009766
        k(  649) = (   0.1623094  -0.3248059   0.4870204), wk =   0.0009766
        k(  650) = (   0.1622996  -0.3789356   0.5411303), wk =   0.0009766
        k(  651) = (   0.1624476   0.4330109  -0.2705180), wk =   0.0009766
        k(  652) = (   0.1624377   0.3788812  -0.2164081), wk =   0.0009766
        k(  653) = (   0.1624278   0.3247514  -0.1622982), wk =   0.0009766
        k(  654) = (   0.1624180   0.2706216  -0.1081883), wk =   0.0009766
        k(  655) = (   0.1624081   0.2164918  -0.0540784), wk =   0.0009766
        k(  656) = (   0.1623982   0.1623621   0.0000315), wk =   0.0009766
        k(  657) = (   0.1623884   0.1082323   0.0541414), wk =   0.0009766
        k(  658) = (   0.1623785   0.0541025   0.1082512), wk =   0.0009766
        k(  659) = (   0.1082569   0.0541016   0.1623713), wk =   0.0009766
        k(  660) = (   0.1082470  -0.0000282   0.2164812), wk =   0.0009766
        k(  661) = (   0.1082371  -0.0541580   0.2705911), wk =   0.0009766
        k(  662) = (   0.1082273  -0.1082877   0.3247010), wk =   0.0009766
        k(  663) = (   0.1082174  -0.1624175   0.3788109), wk =   0.0009766
        k(  664) = (   0.1082075  -0.2165473   0.4329207), wk =   0.0009766
        k(  665) = (   0.1081977  -0.2706770   0.4870306), wk =   0.0009766
        k(  666) = (   0.1081878  -0.3248068   0.5411405), wk =   0.0009766
        k(  667) = (   0.1083358   0.4871398  -0.2705078), wk =   0.0009766
        k(  668) = (   0.1083259   0.4330100  -0.2163979), wk =   0.0009766
        k(  669) = (   0.1083161   0.3788802  -0.1622880), wk =   0.0009766
        k(  670) = (   0.1083062   0.3247504  -0.1081781), wk =   0.0009766
        k(  671) = (   0.1082963   0.2706207  -0.0540682), wk =   0.0009766
        k(  672) = (   0.1082865   0.2164909   0.0000416), wk =   0.0009766
        k(  673) = (   0.1082766   0.1623611   0.0541515), wk =   0.0009766
        k(  674) = (   0.1082667   0.1082314   0.1082614), wk =   0.0009766
        k(  675) = (   0.0541451   0.1082304   0.1623815), wk =   0.0009766
        k(  676) = (   0.0541352   0.0541006   0.2164914), wk =   0.0009766
        k(  677) = (   0.0541254  -0.0000291   0.2706013), wk =   0.0009766
        k(  678) = (   0.0541155  -0.0541589   0.3247111), wk =   0.0009766
        k(  679) = (   0.0541057  -0.1082887   0.3788210), wk =   0.0009766
        k(  680) = (   0.0540958  -0.1624184   0.4329309), wk =   0.0009766
        k(  681) = (   0.0540859  -0.2165482   0.4870408), wk =   0.0009766
        k(  682) = (   0.0540761  -0.2706780   0.5411507), wk =   0.0009766
        k(  683) = (   0.0542240   0.5412686  -0.2704976), wk =   0.0009766
        k(  684) = (   0.0542142   0.4871388  -0.2163877), wk =   0.0009766
        k(  685) = (   0.0542043   0.4330090  -0.1622778), wk =   0.0009766
        k(  686) = (   0.0541944   0.3788793  -0.1081679), wk =   0.0009766
        k(  687) = (   0.0541846   0.3247495  -0.0540581), wk =   0.0009766
        k(  688) = (   0.0541747   0.2706197   0.0000518), wk =   0.0009766
        k(  689) = (   0.0541648   0.2164900   0.0541617), wk =   0.0009766
        k(  690) = (   0.0541550   0.1623602   0.1082716), wk =   0.0009766
        k(  691) = (   0.0000334   0.1623592   0.1623917), wk =   0.0009766
        k(  692) = (   0.0000235   0.1082295   0.2165016), wk =   0.0009766
        k(  693) = (   0.0000136   0.0540997   0.2706114), wk =   0.0009766
        k(  694) = (   0.0000038  -0.0000301   0.3247213), wk =   0.0009766
        k(  695) = (  -0.0000061  -0.0541598   0.3788312), wk =   0.0009766
        k(  696) = (  -0.0000160  -0.1082896   0.4329411), wk =   0.0009766
        k(  697) = (  -0.0000258  -0.1624194   0.4870510), wk =   0.0009766
        k(  698) = (  -0.0000357  -0.2165491   0.5411609), wk =   0.0009766
        k(  699) = (   0.0001123   0.5953974  -0.2704874), wk =   0.0009766
        k(  700) = (   0.0001024   0.5412676  -0.2163775), wk =   0.0009766
        k(  701) = (   0.0000925   0.4871379  -0.1622677), wk =   0.0009766
        k(  702) = (   0.0000827   0.4330081  -0.1081578), wk =   0.0009766
        k(  703) = (   0.0000728   0.3788783  -0.0540479), wk =   0.0009766
        k(  704) = (   0.0000629   0.3247486   0.0000620), wk =   0.0009766
        k(  705) = (   0.0000531   0.2706188   0.0541719), wk =   0.0009766
        k(  706) = (   0.0000432   0.2164890   0.1082818), wk =   0.0009766
        k(  707) = (  -0.0540784   0.2164881   0.1624018), wk =   0.0009766
        k(  708) = (  -0.0540883   0.1623583   0.2165117), wk =   0.0009766
        k(  709) = (  -0.0540981   0.1082285   0.2706216), wk =   0.0009766
        k(  710) = (  -0.0541080   0.0540988   0.3247315), wk =   0.0009766
        k(  711) = (  -0.0541179  -0.0000310   0.3788414), wk =   0.0009766
        k(  712) = (  -0.0541277  -0.0541608   0.4329513), wk =   0.0009766
        k(  713) = (  -0.0541376  -0.1082905   0.4870612), wk =   0.0009766
        k(  714) = (  -0.0541475  -0.1624203   0.5411710), wk =   0.0009766
        k(  715) = (  -0.0539995   0.6495263  -0.2704772), wk =   0.0009766
        k(  716) = (  -0.0540093   0.5953965  -0.2163674), wk =   0.0009766
        k(  717) = (  -0.0540192   0.5412667  -0.1622575), wk =   0.0009766
        k(  718) = (  -0.0540291   0.4871369  -0.1081476), wk =   0.0009766
        k(  719) = (  -0.0540389   0.4330072  -0.0540377), wk =   0.0009766
        k(  720) = (  -0.0540488   0.3788774   0.0000722), wk =   0.0009766
        k(  721) = (  -0.0540587   0.3247476   0.0541821), wk =   0.0009766
        k(  722) = (  -0.0540685   0.2706179   0.1082920), wk =   0.0009766
        k(  723) = (  -0.1081902   0.2706169   0.1624120), wk =   0.0009766
        k(  724) = (  -0.1082000   0.2164871   0.2165219), wk =   0.0009766
        k(  725) = (  -0.1082099   0.1623574   0.2706318), wk =   0.0009766
        k(  726) = (  -0.1082198   0.1082276   0.3247417), wk =   0.0009766
        k(  727) = (  -0.1082296   0.0540978   0.3788516), wk =   0.0009766
        k(  728) = (  -0.1082395  -0.0000319   0.4329615), wk =   0.0009766
        k(  729) = (  -0.1082494  -0.0541617   0.4870713), wk =   0.0009766
        k(  730) = (  -0.1082592  -0.1082915   0.5411812), wk =   0.0009766
        k(  731) = (  -0.1081112   0.7036551  -0.2704671), wk =   0.0009766
        k(  732) = (  -0.1081211   0.6495253  -0.2163572), wk =   0.0009766
        k(  733) = (  -0.1081310   0.5953955  -0.1622473), wk =   0.0009766
        k(  734) = (  -0.1081408   0.5412658  -0.1081374), wk =   0.0009766
        k(  735) = (  -0.1081507   0.4871360  -0.0540275), wk =   0.0009766
        k(  736) = (  -0.1081606   0.4330062   0.0000824), wk =   0.0009766
        k(  737) = (  -0.1081704   0.3788765   0.0541923), wk =   0.0009766
        k(  738) = (  -0.1081803   0.3247467   0.1083021), wk =   0.0009766
        k(  739) = (  -0.1623019   0.3247457   0.1624222), wk =   0.0009766
        k(  740) = (  -0.1623118   0.2706160   0.2165321), wk =   0.0009766
        k(  741) = (  -0.1623217   0.2164862   0.2706420), wk =   0.0009766
        k(  742) = (  -0.1623315   0.1623564   0.3247519), wk =   0.0009766
        k(  743) = (  -0.1623414   0.1082267   0.3788617), wk =   0.0009766
        k(  744) = (  -0.1623513   0.0540969   0.4329716), wk =   0.0009766
        k(  745) = (  -0.1623611  -0.0000329   0.4870815), wk =   0.0009766
        k(  746) = (  -0.1623710  -0.0541627   0.5411914), wk =   0.0009766
        k(  747) = (  -0.1622230   0.7577839  -0.2704569), wk =   0.0009766
        k(  748) = (  -0.1622329   0.7036541  -0.2163470), wk =   0.0009766
        k(  749) = (  -0.1622427   0.6495244  -0.1622371), wk =   0.0009766
        k(  750) = (  -0.1622526   0.5953946  -0.1081272), wk =   0.0009766
        k(  751) = (  -0.1622625   0.5412648  -0.0540173), wk =   0.0009766
        k(  752) = (  -0.1622723   0.4871351   0.0000925), wk =   0.0009766
        k(  753) = (  -0.1622822   0.4330053   0.0542024), wk =   0.0009766
        k(  754) = (  -0.1622921   0.3788755   0.1083123), wk =   0.0009766
        k(  755) = (  -0.2164137   0.3788746   0.1624324), wk =   0.0009766
        k(  756) = (  -0.2164236   0.3247448   0.2165423), wk =   0.0009766
        k(  757) = (  -0.2164334   0.2706150   0.2706522), wk =   0.0009766
        k(  758) = (  -0.2164433   0.2164853   0.3247620), wk =   0.0009766
        k(  759) = (  -0.2164532   0.1623555   0.3788719), wk =   0.0009766
        k(  760) = (  -0.2164630   0.1082257   0.4329818), wk =   0.0009766
        k(  761) = (  -0.2164729   0.0540959   0.4870917), wk =   0.0009766
        k(  762) = (  -0.2164828  -0.0000338   0.5412016), wk =   0.0009766
        k(  763) = (  -0.2163348   0.8119127  -0.2704467), wk =   0.0009766
        k(  764) = (  -0.2163446   0.7577830  -0.2163368), wk =   0.0009766
        k(  765) = (  -0.2163545   0.7036532  -0.1622269), wk =   0.0009766
        k(  766) = (  -0.2163644   0.6495234  -0.1081170), wk =   0.0009766
        k(  767) = (  -0.2163742   0.5953937  -0.0540072), wk =   0.0009766
        k(  768) = (  -0.2163841   0.5412639   0.0001027), wk =   0.0009766
        k(  769) = (  -0.2163940   0.4871341   0.0542126), wk =   0.0009766
        k(  770) = (  -0.2164038   0.4330043   0.1083225), wk =   0.0009766
        k(  771) = (   0.5952628  -0.4330579   0.1622797), wk =   0.0009766
        k(  772) = (   0.5952529  -0.4871877   0.2163896), wk =   0.0009766
        k(  773) = (   0.5952430  -0.5413174   0.2704995), wk =   0.0009766
        k(  774) = (   0.5952332  -0.5954472   0.3246094), wk =   0.0009766
        k(  775) = (   0.5952233  -0.6495770   0.3787192), wk =   0.0009766
        k(  776) = (   0.5952134  -0.7037068   0.4328291), wk =   0.0009766
        k(  777) = (   0.5952036  -0.7578365   0.4869390), wk =   0.0009766
        k(  778) = (   0.5951937  -0.8119663   0.5410489), wk =   0.0009766
        k(  779) = (   0.5953417  -0.0000197  -0.2705994), wk =   0.0009766
        k(  780) = (   0.5953318  -0.0541495  -0.2164895), wk =   0.0009766
        k(  781) = (   0.5953220  -0.1082793  -0.1623796), wk =   0.0009766
        k(  782) = (   0.5953121  -0.1624090  -0.1082697), wk =   0.0009766
        k(  783) = (   0.5953022  -0.2165388  -0.0541598), wk =   0.0009766
        k(  784) = (   0.5952924  -0.2706686  -0.0000500), wk =   0.0009766
        k(  785) = (   0.5952825  -0.3247984   0.0540599), wk =   0.0009766
        k(  786) = (   0.5952726  -0.3789281   0.1081698), wk =   0.0009766
        k(  787) = (   0.5411510  -0.3789291   0.1622899), wk =   0.0009766
        k(  788) = (   0.5411411  -0.4330588   0.2163998), wk =   0.0009766
        k(  789) = (   0.5411313  -0.4871886   0.2705096), wk =   0.0009766
        k(  790) = (   0.5411214  -0.5413184   0.3246195), wk =   0.0009766
        k(  791) = (   0.5411115  -0.5954482   0.3787294), wk =   0.0009766
        k(  792) = (   0.5411017  -0.6495779   0.4328393), wk =   0.0009766
        k(  793) = (   0.5410918  -0.7037077   0.4869492), wk =   0.0009766
        k(  794) = (   0.5410819  -0.7578375   0.5410591), wk =   0.0009766
        k(  795) = (   0.5412299   0.0541091  -0.2705892), wk =   0.0009766
        k(  796) = (   0.5412201  -0.0000207  -0.2164793), wk =   0.0009766
        k(  797) = (   0.5412102  -0.0541504  -0.1623694), wk =   0.0009766
        k(  798) = (   0.5412003  -0.1082802  -0.1082596), wk =   0.0009766
        k(  799) = (   0.5411905  -0.1624100  -0.0541497), wk =   0.0009766
        k(  800) = (   0.5411806  -0.2165398  -0.0000398), wk =   0.0009766
        k(  801) = (   0.5411707  -0.2706695   0.0540701), wk =   0.0009766
        k(  802) = (   0.5411609  -0.3247993   0.1081800), wk =   0.0009766
        k(  803) = (   0.4870392  -0.3248002   0.1623001), wk =   0.0009766
        k(  804) = (   0.4870294  -0.3789300   0.2164099), wk =   0.0009766
        k(  805) = (   0.4870195  -0.4330598   0.2705198), wk =   0.0009766
        k(  806) = (   0.4870096  -0.4871896   0.3246297), wk =   0.0009766
        k(  807) = (   0.4869998  -0.5413193   0.3787396), wk =   0.0009766
        k(  808) = (   0.4869899  -0.5954491   0.4328495), wk =   0.0009766
        k(  809) = (   0.4869800  -0.6495789   0.4869594), wk =   0.0009766
        k(  810) = (   0.4869702  -0.7037086   0.5410693), wk =   0.0009766
        k(  811) = (   0.4871182   0.1082379  -0.2705790), wk =   0.0009766
        k(  812) = (   0.4871083   0.0541082  -0.2164691), wk =   0.0009766
        k(  813) = (   0.4870984  -0.0000216  -0.1623593), wk =   0.0009766
        k(  814) = (   0.4870886  -0.0541514  -0.1082494), wk =   0.0009766
        k(  815) = (   0.4870787  -0.1082812  -0.0541395), wk =   0.0009766
        k(  816) = (   0.4870688  -0.1624109  -0.0000296), wk =   0.0009766
        k(  817) = (   0.4870590  -0.2165407   0.0540803), wk =   0.0009766
        k(  818) = (   0.4870491  -0.2706705   0.1081902), wk =   0.0009766
        k(  819) = (   0.4329275  -0.2706714   0.1623102), wk =   0.0009766
        k(  820) = (   0.4329176  -0.3248012   0.2164201), wk =   0.0009766
        k(  821) = (   0.4329077  -0.3789309   0.2705300), wk =   0.0009766
        k(  822) = (   0.4328979  -0.4330607   0.3246399), wk =   0.0009766
        k(  823) = (   0.4328880  -0.4871905   0.3787498), wk =   0.0009766
        k(  824) = (   0.4328781  -0.5413203   0.4328597), wk =   0.0009766
        k(  825) = (   0.4328683  -0.5954500   0.4869696), wk =   0.0009766
        k(  826) = (   0.4328584  -0.6495798   0.5410794), wk =   0.0009766
        k(  827) = (   0.4330064   0.1623668  -0.2705689), wk =   0.0009766
        k(  828) = (   0.4329965   0.1082370  -0.2164590), wk =   0.0009766
        k(  829) = (   0.4329867   0.0541072  -0.1623491), wk =   0.0009766
        k(  830) = (   0.4329768  -0.0000225  -0.1082392), wk =   0.0009766
        k(  831) = (   0.4329669  -0.0541523  -0.0541293), wk =   0.0009766
        k(  832) = (   0.4329571  -0.1082821  -0.0000194), wk =   0.0009766
        k(  833) = (   0.4329472  -0.1624119   0.0540905), wk =   0.0009766
        k(  834) = (   0.4329373  -0.2165416   0.1082003), wk =   0.0009766
        k(  835) = (   0.3788157  -0.2165426   0.1623204), wk =   0.0009766
        k(  836) = (   0.3788058  -0.2706723   0.2164303), wk =   0.0009766
        k(  837) = (   0.3787960  -0.3248021   0.2705402), wk =   0.0009766
        k(  838) = (   0.3787861  -0.3789319   0.3246501), wk =   0.0009766
        k(  839) = (   0.3787762  -0.4330617   0.3787600), wk =   0.0009766
        k(  840) = (   0.3787664  -0.4871914   0.4328698), wk =   0.0009766
        k(  841) = (   0.3787565  -0.5413212   0.4869797), wk =   0.0009766
        k(  842) = (   0.3787466  -0.5954510   0.5410896), wk =   0.0009766
        k(  843) = (   0.3788946   0.2164956  -0.2705587), wk =   0.0009766
        k(  844) = (   0.3788848   0.1623658  -0.2164488), wk =   0.0009766
        k(  845) = (   0.3788749   0.1082361  -0.1623389), wk =   0.0009766
        k(  846) = (   0.3788650   0.0541063  -0.1082290), wk =   0.0009766
        k(  847) = (   0.3788552  -0.0000235  -0.0541191), wk =   0.0009766
        k(  848) = (   0.3788453  -0.0541533  -0.0000092), wk =   0.0009766
        k(  849) = (   0.3788354  -0.1082830   0.0541006), wk =   0.0009766
        k(  850) = (   0.3788256  -0.1624128   0.1082105), wk =   0.0009766
        k(  851) = (   0.3247039  -0.1624137   0.1623306), wk =   0.0009766
        k(  852) = (   0.3246941  -0.2165435   0.2164405), wk =   0.0009766
        k(  853) = (   0.3246842  -0.2706733   0.2705504), wk =   0.0009766
        k(  854) = (   0.3246743  -0.3248031   0.3246603), wk =   0.0009766
        k(  855) = (   0.3246645  -0.3789328   0.3787701), wk =   0.0009766
        k(  856) = (   0.3246546  -0.4330626   0.4328800), wk =   0.0009766
        k(  857) = (   0.3246447  -0.4871924   0.4869899), wk =   0.0009766
        k(  858) = (   0.3246349  -0.5413221   0.5410998), wk =   0.0009766
        k(  859) = (   0.3247829   0.2706244  -0.2705485), wk =   0.0009766
        k(  860) = (   0.3247730   0.2164947  -0.2164386), wk =   0.0009766
        k(  861) = (   0.3247631   0.1623649  -0.1623287), wk =   0.0009766
        k(  862) = (   0.3247533   0.1082351  -0.1082188), wk =   0.0009766
        k(  863) = (   0.3247434   0.0541053  -0.0541090), wk =   0.0009766
        k(  864) = (   0.3247335  -0.0000244   0.0000009), wk =   0.0009766
        k(  865) = (   0.3247237  -0.0541542   0.0541108), wk =   0.0009766
        k(  866) = (   0.3247138  -0.1082840   0.1082207), wk =   0.0009766
        k(  867) = (   0.2705922  -0.1082849   0.1623408), wk =   0.0009766
        k(  868) = (   0.2705823  -0.1624147   0.2164507), wk =   0.0009766
        k(  869) = (   0.2705724  -0.2165445   0.2705605), wk =   0.0009766
        k(  870) = (   0.2705626  -0.2706742   0.3246704), wk =   0.0009766
        k(  871) = (   0.2705527  -0.3248040   0.3787803), wk =   0.0009766
        k(  872) = (   0.2705428  -0.3789338   0.4328902), wk =   0.0009766
        k(  873) = (   0.2705330  -0.4330635   0.4870001), wk =   0.0009766
        k(  874) = (   0.2705231  -0.4871933   0.5411100), wk =   0.0009766
        k(  875) = (   0.2706711   0.3247533  -0.2705383), wk =   0.0009766
        k(  876) = (   0.2706612   0.2706235  -0.2164284), wk =   0.0009766
        k(  877) = (   0.2706514   0.2164937  -0.1623185), wk =   0.0009766
        k(  878) = (   0.2706415   0.1623639  -0.1082087), wk =   0.0009766
        k(  879) = (   0.2706316   0.1082342  -0.0540988), wk =   0.0009766
        k(  880) = (   0.2706218   0.0541044   0.0000111), wk =   0.0009766
        k(  881) = (   0.2706119  -0.0000254   0.0541210), wk =   0.0009766
        k(  882) = (   0.2706020  -0.0541551   0.1082309), wk =   0.0009766
        k(  883) = (   0.2164804  -0.0541561   0.1623510), wk =   0.0009766
        k(  884) = (   0.2164705  -0.1082858   0.2164608), wk =   0.0009766
        k(  885) = (   0.2164607  -0.1624156   0.2705707), wk =   0.0009766
        k(  886) = (   0.2164508  -0.2165454   0.3246806), wk =   0.0009766
        k(  887) = (   0.2164409  -0.2706752   0.3787905), wk =   0.0009766
        k(  888) = (   0.2164311  -0.3248049   0.4329004), wk =   0.0009766
        k(  889) = (   0.2164212  -0.3789347   0.4870103), wk =   0.0009766
        k(  890) = (   0.2164113  -0.4330645   0.5411202), wk =   0.0009766
        k(  891) = (   0.2165593   0.3788821  -0.2705281), wk =   0.0009766
        k(  892) = (   0.2165495   0.3247523  -0.2164183), wk =   0.0009766
        k(  893) = (   0.2165396   0.2706226  -0.1623084), wk =   0.0009766
        k(  894) = (   0.2165297   0.2164928  -0.1081985), wk =   0.0009766
        k(  895) = (   0.2165199   0.1623630  -0.0540886), wk =   0.0009766
        k(  896) = (   0.2165100   0.1082332   0.0000213), wk =   0.0009766
        k(  897) = (   0.2165001   0.0541035   0.0541312), wk =   0.0009766
        k(  898) = (   0.2164903  -0.0000263   0.1082411), wk =   0.0009766
        k(  899) = (   0.2164915  -0.0000363   0.2164815), wk =   0.0009766
        k(  900) = (   0.2164817  -0.0541661   0.2705914), wk =   0.0009766
        k(  901) = (   0.2164718  -0.1082959   0.3247013), wk =   0.0009766
        k(  902) = (   0.2164619  -0.1624256   0.3788112), wk =   0.0009766
        k(  903) = (   0.2164521  -0.2165554   0.4329210), wk =   0.0009766
        k(  904) = (   0.2164422  -0.2706852   0.4870309), wk =   0.0009766
        k(  905) = (   0.2164323  -0.3248150   0.5411408), wk =   0.0009766
        k(  906) = (   0.2164225  -0.3789447   0.5952507), wk =   0.0009766
        k(  907) = (   0.2165705   0.4330018  -0.2163976), wk =   0.0009766
        k(  908) = (   0.2165606   0.3788721  -0.1622877), wk =   0.0009766
        k(  909) = (   0.2165507   0.3247423  -0.1081778), wk =   0.0009766
        k(  910) = (   0.2165409   0.2706125  -0.0540679), wk =   0.0009766
        k(  911) = (   0.2165310   0.2164828   0.0000420), wk =   0.0009766
        k(  912) = (   0.2165211   0.1623530   0.0541518), wk =   0.0009766
        k(  913) = (   0.2165113   0.1082232   0.1082617), wk =   0.0009766
        k(  914) = (   0.2165014   0.0540934   0.1623716), wk =   0.0009766
        k(  915) = (   0.1623798   0.0540925   0.2164917), wk =   0.0009766
        k(  916) = (   0.1623699  -0.0000373   0.2706016), wk =   0.0009766
        k(  917) = (   0.1623600  -0.0541670   0.3247115), wk =   0.0009766
        k(  918) = (   0.1623502  -0.1082968   0.3788213), wk =   0.0009766
        k(  919) = (   0.1623403  -0.1624266   0.4329312), wk =   0.0009766
        k(  920) = (   0.1623304  -0.2165564   0.4870411), wk =   0.0009766
        k(  921) = (   0.1623206  -0.2706861   0.5411510), wk =   0.0009766
        k(  922) = (   0.1623107  -0.3248159   0.5952609), wk =   0.0009766
        k(  923) = (   0.1624587   0.4871307  -0.2163874), wk =   0.0009766
        k(  924) = (   0.1624488   0.4330009  -0.1622775), wk =   0.0009766
        k(  925) = (   0.1624390   0.3788711  -0.1081676), wk =   0.0009766
        k(  926) = (   0.1624291   0.3247414  -0.0540577), wk =   0.0009766
        k(  927) = (   0.1624192   0.2706116   0.0000521), wk =   0.0009766
        k(  928) = (   0.1624094   0.2164818   0.0541620), wk =   0.0009766
        k(  929) = (   0.1623995   0.1623520   0.1082719), wk =   0.0009766
        k(  930) = (   0.1623896   0.1082223   0.1623818), wk =   0.0009766
        k(  931) = (   0.1082680   0.1082213   0.2165019), wk =   0.0009766
        k(  932) = (   0.1082581   0.0540916   0.2706117), wk =   0.0009766
        k(  933) = (   0.1082483  -0.0000382   0.3247216), wk =   0.0009766
        k(  934) = (   0.1082384  -0.0541680   0.3788315), wk =   0.0009766
        k(  935) = (   0.1082285  -0.1082977   0.4329414), wk =   0.0009766
        k(  936) = (   0.1082187  -0.1624275   0.4870513), wk =   0.0009766
        k(  937) = (   0.1082088  -0.2165573   0.5411612), wk =   0.0009766
        k(  938) = (   0.1081989  -0.2706871   0.5952711), wk =   0.0009766
        k(  939) = (   0.1083469   0.5412595  -0.2163772), wk =   0.0009766
        k(  940) = (   0.1083371   0.4871297  -0.1622673), wk =   0.0009766
        k(  941) = (   0.1083272   0.4330000  -0.1081575), wk =   0.0009766
        k(  942) = (   0.1083173   0.3788702  -0.0540476), wk =   0.0009766
        k(  943) = (   0.1083075   0.3247404   0.0000623), wk =   0.0009766
        k(  944) = (   0.1082976   0.2706106   0.0541722), wk =   0.0009766
        k(  945) = (   0.1082877   0.2164809   0.1082821), wk =   0.0009766
        k(  946) = (   0.1082779   0.1623511   0.1623920), wk =   0.0009766
        k(  947) = (   0.0541562   0.1623502   0.2165120), wk =   0.0009766
        k(  948) = (   0.0541464   0.1082204   0.2706219), wk =   0.0009766
        k(  949) = (   0.0541365   0.0540906   0.3247318), wk =   0.0009766
        k(  950) = (   0.0541266  -0.0000391   0.3788417), wk =   0.0009766
        k(  951) = (   0.0541168  -0.0541689   0.4329516), wk =   0.0009766
        k(  952) = (   0.0541069  -0.1082987   0.4870615), wk =   0.0009766
        k(  953) = (   0.0540970  -0.1624285   0.5411714), wk =   0.0009766
        k(  954) = (   0.0540872  -0.2165582   0.5952812), wk =   0.0009766
        k(  955) = (   0.0542352   0.5953883  -0.2163670), wk =   0.0009766
        k(  956) = (   0.0542253   0.5412586  -0.1622572), wk =   0.0009766
        k(  957) = (   0.0542154   0.4871288  -0.1081473), wk =   0.0009766
        k(  958) = (   0.0542056   0.4329990  -0.0540374), wk =   0.0009766
        k(  959) = (   0.0541957   0.3788693   0.0000725), wk =   0.0009766
        k(  960) = (   0.0541858   0.3247395   0.0541824), wk =   0.0009766
        k(  961) = (   0.0541760   0.2706097   0.1082923), wk =   0.0009766
        k(  962) = (   0.0541661   0.2164799   0.1624022), wk =   0.0009766
        k(  963) = (   0.0000445   0.2164790   0.2165222), wk =   0.0009766
        k(  964) = (   0.0000346   0.1623492   0.2706321), wk =   0.0009766
        k(  965) = (   0.0000247   0.1082195   0.3247420), wk =   0.0009766
        k(  966) = (   0.0000149   0.0540897   0.3788519), wk =   0.0009766
        k(  967) = (   0.0000050  -0.0000401   0.4329618), wk =   0.0009766
        k(  968) = (  -0.0000049  -0.0541699   0.4870716), wk =   0.0009766
        k(  969) = (  -0.0000147  -0.1082996   0.5411815), wk =   0.0009766
        k(  970) = (  -0.0000246  -0.1624294   0.5952914), wk =   0.0009766
        k(  971) = (   0.0001234   0.6495172  -0.2163569), wk =   0.0009766
        k(  972) = (   0.0001135   0.5953874  -0.1622470), wk =   0.0009766
        k(  973) = (   0.0001037   0.5412576  -0.1081371), wk =   0.0009766
        k(  974) = (   0.0000938   0.4871279  -0.0540272), wk =   0.0009766
        k(  975) = (   0.0000839   0.4329981   0.0000827), wk =   0.0009766
        k(  976) = (   0.0000741   0.3788683   0.0541926), wk =   0.0009766
        k(  977) = (   0.0000642   0.3247385   0.1083024), wk =   0.0009766
[...]

          k =-0.7576 0.6496-0.7576 (  1695 PWs)   bands (ev):

   -23.3045  -6.4425  -5.8260  -5.1615   4.6879   4.7120  10.8922  13.6910
    14.9437  22.8053  24.0308  24.7493

     occupation numbers 
     1.0000   1.0000   1.0000   1.0000   1.0000   1.0000   1.0000   1.0000
     1.0000  -0.0000  -0.0000  -0.0000

          k =-0.7576 0.5955-0.7035 (  1693 PWs)   bands (ev):

   -23.3542  -6.6939  -5.7553  -4.9202   4.9282   5.2563  10.1000  13.6560
    15.7880  22.7840  24.1258  25.2250

     occupation numbers 
     1.0000   1.0000   1.0000   1.0000   1.0000   1.0000   1.0000   1.0000
     1.0001  -0.0000  -0.0000  -0.0000

          k =-0.7576 0.5414-0.6493 (  1685 PWs)   bands (ev):

   -23.4038  -6.9491  -5.5831  -4.7255   4.8944   5.8149   9.6845  13.6313
    17.0043  22.7198  23.5674  25.0717

     occupation numbers 
     1.0000   1.0000   1.0000   1.0000   1.0000   1.0000   1.0000   1.0000
    -0.0000  -0.0000  -0.0000  -0.0000

          k =-0.7576 0.4872-0.5952 (  1695 PWs)   bands (ev):

   -23.4457  -7.1590  -5.3585  -4.6057   4.6481   6.2733   9.5693  13.8626
    18.4018  21.7538  23.2066  24.8878

     occupation numbers 
     1.0000   1.0000   1.0000   1.0000   1.0000   1.0000   1.0000   1.0000
    -0.0000  -0.0000  -0.0000  -0.0000

          k =-0.7576 0.4331-0.5411 (  1684 PWs)   bands (ev):

   -23.4736  -7.2949  -5.1475  -4.5702   4.3881   6.5696   9.5520  14.3323
    19.6913  20.4817  23.1391  24.8295

     occupation numbers 
     1.0000   1.0000   1.0000   1.0000   1.0000   1.0000   1.0000   1.0000
    -0.0000  -0.0000  -0.0000  -0.0000

          k =-0.7576 0.3790-0.4870 (  1680 PWs)   bands (ev):

   -23.4834  -7.3418  -5.0513  -4.5767   4.2822   6.6722   9.5471  14.6164
    19.9088  20.2774  23.1196  25.1230

     occupation numbers 
     1.0000   1.0000   1.0000   1.0000   1.0000   1.0000   1.0000   1.0000
    -0.0000  -0.0000  -0.0000  -0.0000

          k =-0.8118 0.3790-0.4329 (  1685 PWs)   bands (ev):

   -23.4725  -7.4576  -4.9488  -4.5071   4.0866   6.5948  10.2289  13.4445
    19.8673  19.9975  23.7797  25.4435

     occupation numbers 
     1.0000   1.0000   1.0000   1.0000   1.0000   1.0000   1.0000   1.0000
    -0.0000  -0.0000  -0.0000  -0.0000

          k =-0.8118 0.3248-0.3788 (  1689 PWs)   bands (ev):

   -23.4523  -7.3558  -5.0621  -4.5992   4.3005   6.3964  10.3148  12.9300
    19.0076  21.0760  23.7068  25.1640

     occupation numbers 
     1.0000   1.0000   1.0000   1.0000   1.0000   1.0000   1.0000   1.0000
    -0.0000  -0.0000  -0.0000  -0.0000

          k =-0.8118 0.2707-0.3247 (  1692 PWs)   bands (ev):

   -23.4148  -7.1603  -5.2515  -4.7641   4.5928   6.0190  10.4019  12.5401
    17.7501  22.6335  23.5683  25.0774

     occupation numbers 
     1.0000   1.0000   1.0000   1.0000   1.0000   1.0000   1.0000   1.0000
    -0.0000  -0.0000  -0.0000  -0.0000

          k =-0.8118 0.2166-0.2706 (  1690 PWs)   bands (ev):

   -23.3656  -6.8886  -5.4629  -4.9738   4.7372   5.5039  10.5561  12.6265
    16.4897  23.2694  24.0212  24.7799

     occupation numbers 
     1.0000   1.0000   1.0000   1.0000   1.0000   1.0000   1.0000   1.0000
    -0.0046  -0.0000  -0.0000  -0.0000

          k =-0.8118 0.1625-0.2165 (  1690 PWs)   bands (ev):

   -23.3120  -6.5702  -5.6474  -5.2002   4.5868   4.9208  11.0528  13.0226
    15.4135  23.0722  24.0113  24.6263

     occupation numbers 
     1.0000   1.0000   1.0000   1.0000   1.0000   1.0000   1.0000   1.0000
     1.0000  -0.0000  -0.0000  -0.0000

          k =-0.8118 0.1083-0.1623 (  1693 PWs)   bands (ev):

   -23.2622  -6.2505  -5.7710  -5.4187   4.2282   4.3655  11.8995  13.4718
    14.6006  22.9538  23.7311  24.1158

     occupation numbers 
     1.0000   1.0000   1.0000   1.0000   1.0000   1.0000   1.0000   1.0000
     1.0000  -0.0000  -0.0000  -0.0000

          k =-0.8118 0.0542-0.1082 (  1683 PWs)   bands (ev):

   -23.2239  -5.9967  -5.8082  -5.6092   3.8623   3.9281  12.8462  13.7502
    14.1207  22.9586  23.4566  23.5412

     occupation numbers 
     1.0000   1.0000   1.0000   1.0000   1.0000   1.0000   1.0000   1.0000
     1.0000  -0.0000  -0.0000  -0.0000

          k =-0.8118 0.0001-0.0541 (  1684 PWs)   bands (ev):

   -23.2031  -5.8724  -5.7562  -5.7545   3.6502   3.6773  13.5321  13.7329
    14.0044  23.0635  23.0848  23.2606

     occupation numbers 
     1.0000   1.0000   1.0000   1.0000   1.0000   1.0000   1.0000   1.0000
     1.0000  -0.0000  -0.0000  -0.0000

          k =-0.8117 0.8120-0.8658 (  1684 PWs)   bands (ev):

   -23.2031  -5.8723  -5.7568  -5.7541   3.6464   3.6810  13.5305  13.7328
    14.0060  23.0647  23.0840  23.2604

     occupation numbers 
     1.0000   1.0000   1.0000   1.0000   1.0000   1.0000   1.0000   1.0000
     1.0000  -0.0000  -0.0000  -0.0000

          k =-0.8117 0.7579-0.8117 (  1683 PWs)   bands (ev):

   -23.2239  -5.9963  -5.8087  -5.6091   3.8586   3.9317  12.8442  13.7515
    14.1214  22.9590  23.4560  23.5421

     occupation numbers 
     1.0000   1.0000   1.0000   1.0000   1.0000   1.0000   1.0000   1.0000
     1.0000  -0.0000  -0.0000  -0.0000

          k =-0.8117 0.7038-0.7576 (  1693 PWs)   bands (ev):

   -23.2622  -6.2503  -5.7713  -5.4186   4.2272   4.3662  11.8977  13.4734
    14.6009  22.9540  23.7311  24.1165

     occupation numbers 
     1.0000   1.0000   1.0000   1.0000   1.0000   1.0000   1.0000   1.0000
     1.0000  -0.0000  -0.0000  -0.0000

          k =-0.8117 0.6496-0.7034 (  1690 PWs)   bands (ev):

   -23.3120  -6.5701  -5.6475  -5.2003   4.5876   4.9196  11.0514  13.0240
    15.4138  23.0722  24.0118  24.6269

     occupation numbers 
     1.0000   1.0000   1.0000   1.0000   1.0000   1.0000   1.0000   1.0000
     1.0000  -0.0000  -0.0000  -0.0000

          k =-0.8117 0.5955-0.6493 (  1690 PWs)   bands (ev):

   -23.3656  -6.8885  -5.4628  -4.9740   4.7381   5.5023  10.5551  12.6278
    16.4901  23.2695  24.0220  24.7801

     occupation numbers 
     1.0000   1.0000   1.0000   1.0000   1.0000   1.0000   1.0000   1.0000
    -0.0046  -0.0000  -0.0000  -0.0000

          k =-0.8117 0.5414-0.5952 (  1692 PWs)   bands (ev):

   -23.4148  -7.1602  -5.2513  -4.7644   4.5934   6.0178  10.4012  12.5411
    17.7505  22.6346  23.5675  25.0777

     occupation numbers 
     1.0000   1.0000   1.0000   1.0000   1.0000   1.0000   1.0000   1.0000
    -0.0000  -0.0000  -0.0000  -0.0000

          k =-0.8117 0.4872-0.5411 (  1689 PWs)   bands (ev):

   -23.4523  -7.3557  -5.0618  -4.5995   4.3008   6.3957  10.3145  12.9305
    19.0081  21.0764  23.7065  25.1626

     occupation numbers 
     1.0000   1.0000   1.0000   1.0000   1.0000   1.0000   1.0000   1.0000
    -0.0000  -0.0000  -0.0000  -0.0000

          k =-0.8118 0.4331-0.4870 (  1686 PWs)   bands (ev):

   -23.4725  -7.4576  -4.9487  -4.5072   4.0867   6.5946  10.2288  13.4446
    19.8681  19.9970  23.7796  25.4427

     occupation numbers 
     1.0000   1.0000   1.0000   1.0000   1.0000   1.0000   1.0000   1.0000
    -0.0000  -0.0000  -0.0000  -0.0000

          k =-0.0001-0.4330-0.4330 (  1674 PWs)   bands (ev):

   -23.4721  -7.5171  -4.8871  -4.4670   3.9690   6.6081  10.5705  13.0384
    19.8099  19.8977  24.0775  25.9293

     occupation numbers 
     1.0000   1.0000   1.0000   1.0000   1.0000   1.0000   1.0000   1.0000
    -0.0000  -0.0000  -0.0000  -0.0000

          k =-0.0001-0.4871-0.3789 (  1692 PWs)   bands (ev):

   -23.4616  -7.4645  -4.9255  -4.5412   4.0877   6.5073  10.6886  12.6526
    19.4610  20.4146  24.0325  25.4806

     occupation numbers 
     1.0000   1.0000   1.0000   1.0000   1.0000   1.0000   1.0000   1.0000
    -0.0000  -0.0000  -0.0000  -0.0000

          k =-0.0001-0.5412-0.3248 (  1698 PWs)   bands (ev):

   -23.4317  -7.3106  -5.0326  -4.7375   4.3701   6.2152  11.0270  11.8845
    18.3989  21.8516  23.9068  25.3430

     occupation numbers 
     1.0000   1.0000   1.0000   1.0000   1.0000   1.0000   1.0000   1.0000
    -0.0000  -0.0000  -0.0000  -0.0000

          k =-0.0001-0.5953-0.2707 (  1694 PWs)   bands (ev):

   -23.3868  -7.0678  -5.1875  -4.9968   4.6159   5.7628  11.3165  11.5405
    17.1538  23.5188  23.7256  24.6662

     occupation numbers 
     1.0000   1.0000   1.0000   1.0000   1.0000   1.0000   1.0000   1.0000
    -0.0000  -0.0000  -0.0000  -0.0000

          k =-0.0001-0.6495-0.2166 (  1684 PWs)   bands (ev):

   -23.3334  -6.7589  -5.3626  -5.2602   4.6067   5.2014  11.3031  12.1593
    16.0053  23.5214  24.0473  24.4532

     occupation numbers 
     1.0000   1.0000   1.0000   1.0000   1.0000   1.0000   1.0000   1.0000
     1.0317  -0.0000  -0.0000  -0.0000

          k =-0.0001-0.7036-0.1625 (  1693 PWs)   bands (ev):

   -23.2797  -6.4201  -5.5304  -5.4863   4.3217   4.6037  11.8648  12.7957
    15.0747  23.3263  23.5810  24.2356

     occupation numbers 
     1.0000   1.0000   1.0000   1.0000   1.0000   1.0000   1.0000   1.0000
     1.0000  -0.0000  -0.0000  -0.0000

          k =-0.0001-0.7577-0.1084 (  1686 PWs)   bands (ev):

   -23.2338  -6.1033  -5.6675  -5.6535   3.9422   4.0625  12.7328  13.3517
    14.4049  23.1675  23.2638  23.7595

     occupation numbers 
     1.0000   1.0000   1.0000   1.0000   1.0000   1.0000   1.0000   1.0000
     1.0000  -0.0000  -0.0000  -0.0000

          k =-0.0002-0.8119-0.0543 (  1684 PWs)   bands (ev):

   -23.2031  -5.8725  -5.7565  -5.7541   3.6479   3.6795  13.5317  13.7328
    14.0048  23.0644  23.0842  23.2605

     occupation numbers 
     1.0000   1.0000   1.0000   1.0000   1.0000   1.0000   1.0000   1.0000
     1.0000  -0.0000  -0.0000  -0.0000

          k =-0.0000 0.0001-0.8659 (  1686 PWs)   bands (ev):

   -23.1922  -5.7879  -5.7873  -5.7868   3.5377   3.5421  13.8643  13.8661
    13.8758  23.0264  23.0275  23.0295

     occupation numbers 
     1.0000   1.0000   1.0000   1.0000   1.0000   1.0000   1.0000   1.0000
     1.0000  -0.0000  -0.0000  -0.0000

     the Fermi energy is    16.1959 ev

!    total energy              =     -80.11741473 Ry
     estimated scf accuracy    <          6.1E-11 Ry
     smearing contrib. (-TS)   =      -0.00000750 Ry
     internal energy E=F+TS    =     -80.11740723 Ry

     The total energy is F=E-TS. E is the sum of the following terms:
     one-electron contribution =      -0.99950074 Ry
     hartree contribution      =      10.36305656 Ry
     xc contribution           =     -15.72508635 Ry
     ewald contribution        =     -73.75587670 Ry

     convergence has been achieved in  10 iterations

     Forces acting on atoms (cartesian axes, Ry/au):

     atom    1 type  1   force =     0.00000335    0.00000664   -0.00000868
     atom    2 type  2   force =    -0.00001154   -0.00006086   -0.00003708
     atom    3 type  2   force =    -0.00002233    0.00001991   -0.00000264
     atom    4 type  2   force =    -0.00009079   -0.00004835    0.00008897
     atom    5 type  2   force =    -0.00001292    0.00001217    0.00001323
     atom    6 type  2   force =     0.00004641   -0.00000972   -0.00004246
     atom    7 type  2   force =     0.00008783    0.00008021   -0.00001133
     The non-local contrib.  to forces
     atom    1 type  1   force =    -0.00000071   -0.00000316    0.00000751
     atom    2 type  2   force =    -0.00001528    0.00001283    0.00001587
     atom    3 type  2   force =    -0.00002032   -0.00001075    0.00001067
     atom    4 type  2   force =     0.00001038    0.00001502   -0.00001789
     atom    5 type  2   force =     0.00001568   -0.00000759   -0.00000305
     atom    6 type  2   force =     0.00001871    0.00000497   -0.00001599
     atom    7 type  2   force =    -0.00000915   -0.00001308    0.00000758
     The ionic contribution  to forces
     atom    1 type  1   force =     0.00002160    0.00009452   -0.00016925
     atom    2 type  2   force =     0.00034940   -0.00045879   -0.00034440
     atom    3 type  2   force =     0.00030659    0.00021190   -0.00018340
     atom    4 type  2   force =    -0.00039552   -0.00048891    0.00076695
     atom    5 type  2   force =    -0.00044404    0.00018337    0.00005941
     atom    6 type  2   force =    -0.00020239   -0.00008528    0.00015945
     atom    7 type  2   force =     0.00036437    0.00054319   -0.00028877
     The local contribution  to forces
     atom    1 type  1   force =    -0.00001803   -0.00008498    0.00015372
     atom    2 type  2   force =    -0.00034582    0.00038483    0.00029203
     atom    3 type  2   force =    -0.00030878   -0.00018149    0.00017065
     atom    4 type  2   force =     0.00029416    0.00042528   -0.00065950
     atom    5 type  2   force =     0.00041524   -0.00016386   -0.00004255
     atom    6 type  2   force =     0.00022990    0.00007032   -0.00018533
     atom    7 type  2   force =    -0.00026756   -0.00045017    0.00027042
     The core correction contribution to forces
     atom    1 type  1   force =     0.00000000    0.00000000    0.00000000
     atom    2 type  2   force =     0.00000000    0.00000000    0.00000000
     atom    3 type  2   force =     0.00000000    0.00000000    0.00000000
     atom    4 type  2   force =     0.00000000    0.00000000    0.00000000
     atom    5 type  2   force =     0.00000000    0.00000000    0.00000000
     atom    6 type  2   force =     0.00000000    0.00000000    0.00000000
     atom    7 type  2   force =     0.00000000    0.00000000    0.00000000
     The Hubbard contrib.    to forces
     atom    1 type  1   force =     0.00000000    0.00000000    0.00000000
     atom    2 type  2   force =     0.00000000    0.00000000    0.00000000
     atom    3 type  2   force =     0.00000000    0.00000000    0.00000000
     atom    4 type  2   force =     0.00000000    0.00000000    0.00000000
     atom    5 type  2   force =     0.00000000    0.00000000    0.00000000
     atom    6 type  2   force =     0.00000000    0.00000000    0.00000000
     atom    7 type  2   force =     0.00000000    0.00000000    0.00000000
     The SCF correction term to forces
     atom    1 type  1   force =     0.00000030    0.00000000   -0.00000007
     atom    2 type  2   force =    -0.00000002    0.00000001    0.00000000
     atom    3 type  2   force =    -0.00000000   -0.00000001    0.00000001
     atom    4 type  2   force =     0.00000001   -0.00000000   -0.00000001
     atom    5 type  2   force =     0.00000001   -0.00000001   -0.00000000
     atom    6 type  2   force =    -0.00000001    0.00000001   -0.00000001
     atom    7 type  2   force =    -0.00000001    0.00000000    0.00000002

     Total force =     0.000209     Total SCF correction =     0.000000


     Computing stress (Cartesian axis) and pressure

          total   stress  (Ry/bohr**3)                   (kbar)     P=     1700.24
   0.01155800   0.00000127  -0.00000103         1700.24        0.19       -0.15
   0.00000127   0.01155843   0.00000126            0.19     1700.30        0.19
  -0.00000103   0.00000126   0.01155758           -0.15        0.19     1700.18

     kinetic stress (kbar)  25620.80      0.27     -0.10
                                0.27  25620.85      0.25
                               -0.10      0.25  25620.75

     local   stress (kbar)  11369.09      1.65      2.73
                                1.65  11370.07      0.92
                                2.73      0.92  11368.39

     nonloc. stress (kbar)  -7799.17     -0.07      0.01
                               -0.07  -7799.18     -0.06
                                0.01     -0.06  -7799.15

     hartree stress (kbar)   3647.01     -0.55     -0.88
                               -0.55   3646.67     -0.31
                               -0.88     -0.31   3647.26

     exc-cor stress (kbar)  -5181.31      0.01      0.00
                                0.01  -5181.31      0.01
                                0.00      0.01  -5181.32

     corecor stress (kbar)      0.00      0.00      0.00
                                0.00      0.00      0.00
                                0.00      0.00      0.00

     ewald   stress (kbar) -25956.18     -1.13     -1.92
                               -1.13 -25956.80     -0.62
                               -1.92     -0.62 -25955.75

     hubbard stress (kbar)      0.00      0.00      0.00
                                0.00      0.00      0.00
                                0.00      0.00      0.00

     DFT-D   stress (kbar)      0.00      0.00      0.00
                                0.00      0.00      0.00
                                0.00      0.00      0.00

     XDM     stress (kbar)      0.00      0.00      0.00
                                0.00      0.00      0.00
                                0.00      0.00      0.00

     dft-nl  stress (kbar)      0.00      0.00      0.00
                                0.00      0.00      0.00
                                0.00      0.00      0.00

     TS-vdW  stress (kbar)      0.00      0.00      0.00
                                0.00      0.00      0.00
                                0.00      0.00      0.00



     Writing output data file ./out/cah6.save/

     init_run     :      5.05s CPU      5.89s WALL (       1 calls)
     electrons    :    188.15s CPU    217.12s WALL (       1 calls)
     forces       :      1.50s CPU      1.57s WALL (       1 calls)
     stress       :      2.67s CPU      2.73s WALL (       1 calls)

     Called by init_run:
     wfcinit      :      4.88s CPU      5.71s WALL (       1 calls)
     wfcinit:atom :      0.07s CPU      0.08s WALL (    2052 calls)
     wfcinit:wfcr :      4.68s CPU      5.48s WALL (    2052 calls)
     potinit      :      0.05s CPU      0.05s WALL (       1 calls)
     hinit0       :      0.08s CPU      0.08s WALL (       1 calls)

     Called by electrons:
     c_bands      :    166.57s CPU    191.70s WALL (      11 calls)
     sum_band     :     21.53s CPU     25.32s WALL (      11 calls)
     v_of_rho     :      0.03s CPU      0.04s WALL (      11 calls)
     v_h          :      0.00s CPU      0.00s WALL (      11 calls)
     v_xc         :      0.03s CPU      0.03s WALL (      11 calls)
     mix_rho      :      0.00s CPU      0.01s WALL (      11 calls)

     Called by c_bands:
     init_us_2    :      2.38s CPU      2.74s WALL (   51300 calls)
     cegterg      :    161.73s CPU    186.20s WALL (   22572 calls)

     Called by sum_band:
     sum_band:wei :      0.20s CPU      0.20s WALL (      11 calls)
     sum_band:loo :     21.33s CPU     25.12s WALL (      11 calls)
     sum_band:buf :      0.12s CPU      0.15s WALL (   22572 calls)
     sum_band:ini :      1.10s CPU      1.28s WALL (   22572 calls)

     Called by *egterg:
     cdiaghg      :     10.33s CPU     11.76s WALL (  100194 calls)
     cegterg:over :      7.88s CPU      8.97s WALL (   79674 calls)
     cegterg:upda :      3.73s CPU      4.16s WALL (   79674 calls)
     cegterg:last :      6.28s CPU      6.94s WALL (   50183 calls)
     h_psi        :    131.61s CPU    152.43s WALL (  104298 calls)
     g_psi        :      0.79s CPU      0.90s WALL (   79674 calls)

     Called by h_psi:
     h_psi:calbec :      8.42s CPU      9.77s WALL (  104298 calls)
     vloc_psi     :    114.55s CPU    132.70s WALL (  104298 calls)
     add_vuspsi   :      7.23s CPU      8.31s WALL (  104298 calls)

     General routines
     calbec       :      9.48s CPU     10.82s WALL (  114558 calls)
     fft          :      0.02s CPU      0.02s WALL (     118 calls)
     ffts         :      0.00s CPU      0.00s WALL (      11 calls)
     fftw         :    121.21s CPU    140.50s WALL ( 1789410 calls)

     Parallel routines
     fft_scatt_xy :     12.52s CPU     14.43s WALL ( 1789539 calls)
     fft_scatt_yz :     30.82s CPU     35.18s WALL ( 1789539 calls)

     PWSCF        :   3m18.67s CPU   3m49.38s WALL


   This run was terminated on:  23:11:51   3Jun2026            

=------------------------------------------------------------------------------=
   JOB DONE.
=------------------------------------------------------------------------------=
