
     Program PWSCF v.6.7MaX starts on 31May2026 at 13:20:30 

     This program is part of the open-source Quantum ESPRESSO suite
     for quantum simulation of materials; please cite
         "P. Giannozzi et al., J. Phys.:Condens. Matter 21 395502 (2009);
         "P. Giannozzi et al., J. Phys.:Condens. Matter 29 465901 (2017);
          URL http://www.quantum-espresso.org", 
     in publications or presentations arising from this work. More details at
     http://www.quantum-espresso.org/quote

     Parallel version (MPI), running on     5 processors

     MPI processes distributed on     1 nodes
     R & G space division:  proc/nbgrp/npool/nimage =       5
     Reading input from vc-relax.in

     Current dimensions of program PWSCF are:
     Max number of different atomic species (ntypx) = 10
     Max number of k-points (npk) =  40000
     Max angular momentum in pseudopotentials (lmaxx) =  3
     file Ba.pbe-spn-rrkjus_psl.1.0.0.UPF: wavefunction(s)  5S 6S renormalized

     Subspace diagonalization in iterative solution of the eigenvalue problem:
     a serial algorithm will be used


     Parallelization info
     --------------------
     sticks:   dense  smooth     PW     G-vecs:    dense   smooth      PW
     Min         612     306     87                25384     8942    1413
     Max         613     307     88                25387     8943    1418
     Sum        3061    1533    437               126923    44713    7075



     bravais-lattice index     =            1
     lattice parameter (alat)  =       7.7404  a.u.
     unit-cell volume          =     463.7567 (a.u.)^3
     number of atoms/cell      =            5
     number of atomic types    =            3
     number of electrons       =        24.00
     number of Kohn-Sham states=           16
     kinetic-energy cutoff     =      80.0000  Ry
     charge density cutoff     =     640.0000  Ry
     scf convergence threshold =      1.0E-10
     mixing beta               =       0.4000
     number of iterations used =            8  plain     mixing
     energy convergence thresh.=      1.0E-05
     force convergence thresh. =      1.0E-04
     press convergence thresh. =      5.0E-01
     Exchange-correlation= PBE
                           (   1   4   3   4   0   0   0)
     nstep                     =          200


     celldm(1)=   7.740400  celldm(2)=   0.000000  celldm(3)=   0.000000
     celldm(4)=   0.000000  celldm(5)=   0.000000  celldm(6)=   0.000000

     crystal axes: (cart. coord. in units of alat)
               a(1) = (   1.000000   0.000000   0.000000 )  
               a(2) = (   0.000000   1.000000   0.000000 )  
               a(3) = (   0.000000   0.000000   1.000000 )  

     reciprocal axes: (cart. coord. in units 2 pi/alat)
               b(1) = (  1.000000  0.000000  0.000000 )  
               b(2) = (  0.000000  1.000000  0.000000 )  
               b(3) = (  0.000000  0.000000  1.000000 )  


     PseudoPot. # 1 for Ba read from file:
     ./pseudo/Ba.pbe-spn-rrkjus_psl.1.0.0.UPF
     MD5 check sum: 03210ee0890048675a516292961e2951
     Pseudo is Ultrasoft + core correction, Zval = 10.0
     Generated using &quot;atomic&quot; code by A. Dal Corso  v.6.2.2
     Using radial grid of 1251 points,  7 beta functions with: 
                l(1) =   0
                l(2) =   0
                l(3) =   0
                l(4) =   1
                l(5) =   1
                l(6) =   2
                l(7) =   2
     Q(r) pseudized with 0 coefficients 


     PseudoPot. # 2 for Au read from file:
     ./pseudo/Au.pbe-n-rrkjus_psl.1.0.0.UPF
     MD5 check sum: 36a5134bc4f0d73a839546df15754897
     Pseudo is Ultrasoft + core correction, Zval = 11.0
     Generated using &quot;atomic&quot; code by A. Dal Corso  v.6.3
     Using radial grid of 1279 points,  6 beta functions with: 
                l(1) =   0
                l(2) =   0
                l(3) =   1
                l(4) =   1
                l(5) =   2
                l(6) =   2
     Q(r) pseudized with 0 coefficients 


     PseudoPot. # 3 for H  read from file:
     ./pseudo/H.pbe-rrkjus_psl.1.0.0.UPF
     MD5 check sum: 9e615844a0e642e0aee8526d0d0f65f7
     Pseudo is Ultrasoft, Zval =  1.0
     Generated using &quot;atomic&quot; code by A. Dal Corso  v.6.3MaX
     Using radial grid of  929 points,  2 beta functions with: 
                l(1) =   0
                l(2) =   0
     Q(r) pseudized with 0 coefficients 


     atomic species   valence    mass     pseudopotential
        Ba            10.00   137.32700     Ba( 1.00)
        Au            11.00   196.96700     Au( 1.00)
        H              1.00     1.00800     H ( 1.00)

     No symmetry found



   Cartesian axes

     site n.     atom                  positions (alat units)
         1           Ba  tau(   1) = (   0.5000000   0.5000000   0.5000000  )
         2           Au  tau(   2) = (   0.0000000   0.0000000   0.0000000  )
         3           H   tau(   3) = (   0.5000000   0.0000000   0.0000000  )
         4           H   tau(   4) = (   0.0000000   0.5000000   0.0000000  )
         5           H   tau(   5) = (   0.0000000   0.0000000   0.5000000  )

     number of k points=   868  Methfessel-Paxton smearing, width (Ry)=  0.0200

     Number of k-points >= 100: set verbosity='high' to print them.

     Dense  grid:   126923 G-vectors     FFT dimensions: (  64,  64,  64)

     Smooth grid:    44713 G-vectors     FFT dimensions: (  45,  45,  45)

     Estimated max dynamical RAM per process >     355.45 MB

     Estimated total dynamical RAM >       1.74 GB

     Initial potential from superposition of free atoms

     starting charge   23.98286, renormalised to   24.00000
     Starting wfcs are   17 randomized atomic wfcs

     total cpu time spent up to now is       16.8 secs

     Self-consistent Calculation

     iteration #  1     ecut=    80.00 Ry     beta= 0.40
     Davidson diagonalization with overlap
     ethr =  1.00E-02,  avg # of iterations =  8.1

     total cpu time spent up to now is       78.4 secs

     total energy              =    -151.64522904 Ry
     estimated scf accuracy    <       0.36131504 Ry

     iteration #  2     ecut=    80.00 Ry     beta= 0.40
     Davidson diagonalization with overlap
     ethr =  1.51E-03,  avg # of iterations =  2.3

     total cpu time spent up to now is      122.0 secs

     total energy              =    -151.73726952 Ry
     estimated scf accuracy    <       0.02869651 Ry

     iteration #  3     ecut=    80.00 Ry     beta= 0.40
     Davidson diagonalization with overlap
     c_bands:  1 eigenvalues not converged
     c_bands:  1 eigenvalues not converged
     ethr =  1.20E-04,  avg # of iterations =  8.1

     total cpu time spent up to now is      177.2 secs

     total energy              =    -151.74279742 Ry
     estimated scf accuracy    <       0.00273541 Ry

     iteration #  4     ecut=    80.00 Ry     beta= 0.40
     Davidson diagonalization with overlap
     ethr =  1.14E-05,  avg # of iterations =  5.7

     total cpu time spent up to now is      228.6 secs

     total energy              =    -151.74347896 Ry
     estimated scf accuracy    <       0.00047414 Ry

     iteration #  5     ecut=    80.00 Ry     beta= 0.40
     Davidson diagonalization with overlap
     c_bands:  1 eigenvalues not converged
     c_bands:  1 eigenvalues not converged
     ethr =  1.98E-06,  avg # of iterations =  5.5

     total cpu time spent up to now is      281.6 secs

     total energy              =    -151.74356896 Ry
     estimated scf accuracy    <       0.00190705 Ry

     iteration #  6     ecut=    80.00 Ry     beta= 0.40
     Davidson diagonalization with overlap
     ethr =  1.98E-06,  avg # of iterations =  3.6

     total cpu time spent up to now is      319.8 secs

     total energy              =    -151.74359736 Ry
     estimated scf accuracy    <       0.00008748 Ry

     iteration #  7     ecut=    80.00 Ry     beta= 0.40
     Davidson diagonalization with overlap
     ethr =  3.64E-07,  avg # of iterations =  2.1

     total cpu time spent up to now is      361.2 secs

     total energy              =    -151.74362176 Ry
     estimated scf accuracy    <       0.00001183 Ry

     iteration #  8     ecut=    80.00 Ry     beta= 0.40
     Davidson diagonalization with overlap
     ethr =  4.93E-08,  avg # of iterations =  3.4

     total cpu time spent up to now is      401.7 secs

     total energy              =    -151.74362290 Ry
     estimated scf accuracy    <       0.00001191 Ry

     iteration #  9     ecut=    80.00 Ry     beta= 0.40
     Davidson diagonalization with overlap
     ethr =  4.93E-08,  avg # of iterations =  1.7

     total cpu time spent up to now is      435.9 secs

     total energy              =    -151.74362236 Ry
     estimated scf accuracy    <       0.00000498 Ry

     iteration # 10     ecut=    80.00 Ry     beta= 0.40
     Davidson diagonalization with overlap
     ethr =  2.07E-08,  avg # of iterations =  2.9

     total cpu time spent up to now is      473.1 secs

     total energy              =    -151.74362268 Ry
     estimated scf accuracy    <       0.00000360 Ry

     iteration # 11     ecut=    80.00 Ry     beta= 0.40
     Davidson diagonalization with overlap
     ethr =  1.50E-08,  avg # of iterations =  2.2

     total cpu time spent up to now is      512.2 secs

     total energy              =    -151.74362289 Ry
     estimated scf accuracy    <       0.00000016 Ry

     iteration # 12     ecut=    80.00 Ry     beta= 0.40
     Davidson diagonalization with overlap
     c_bands:  1 eigenvalues not converged
     ethr =  6.74E-10,  avg # of iterations =  5.0

     total cpu time spent up to now is      578.6 secs

     total energy              =    -151.74362290 Ry
     estimated scf accuracy    <       0.00000202 Ry

     iteration # 13     ecut=    80.00 Ry     beta= 0.40
     Davidson diagonalization with overlap
     ethr =  6.74E-10,  avg # of iterations =  4.5

     total cpu time spent up to now is      621.1 secs

     total energy              =    -151.74362298 Ry
     estimated scf accuracy    <       0.00000035 Ry

     iteration # 14     ecut=    80.00 Ry     beta= 0.40
     Davidson diagonalization with overlap
     ethr =  6.74E-10,  avg # of iterations =  1.6

     total cpu time spent up to now is      663.5 secs

     total energy              =    -151.74362298 Ry
     estimated scf accuracy    <       0.00000012 Ry

     iteration # 15     ecut=    80.00 Ry     beta= 0.40
     Davidson diagonalization with overlap
     ethr =  5.08E-10,  avg # of iterations =  3.1

     total cpu time spent up to now is      703.8 secs

     total energy              =    -151.74362298 Ry
     estimated scf accuracy    <       0.00000008 Ry

     iteration # 16     ecut=    80.00 Ry     beta= 0.40
     Davidson diagonalization with overlap
     ethr =  3.39E-10,  avg # of iterations =  1.0

     total cpu time spent up to now is      735.5 secs

     total energy              =    -151.74362298 Ry
     estimated scf accuracy    <       0.00000006 Ry

     iteration # 17     ecut=    80.00 Ry     beta= 0.40
     Davidson diagonalization with overlap
     ethr =  2.34E-10,  avg # of iterations =  2.1

     total cpu time spent up to now is      771.4 secs

     total energy              =    -151.74362298 Ry
     estimated scf accuracy    <       0.00000002 Ry

     iteration # 18     ecut=    80.00 Ry     beta= 0.40
     Davidson diagonalization with overlap
     ethr =  9.31E-11,  avg # of iterations =  1.5

     total cpu time spent up to now is      804.8 secs

     total energy              =    -151.74362298 Ry
     estimated scf accuracy    <          5.5E-09 Ry

     iteration # 19     ecut=    80.00 Ry     beta= 0.40
     Davidson diagonalization with overlap
     ethr =  2.29E-11,  avg # of iterations =  4.3

     total cpu time spent up to now is      844.2 secs

     total energy              =    -151.74362298 Ry
     estimated scf accuracy    <       0.00000001 Ry

     iteration # 20     ecut=    80.00 Ry     beta= 0.40
     Davidson diagonalization with overlap
     ethr =  2.29E-11,  avg # of iterations =  2.0

     total cpu time spent up to now is      879.2 secs

     total energy              =    -151.74362298 Ry
     estimated scf accuracy    <          5.1E-09 Ry

     iteration # 21     ecut=    80.00 Ry     beta= 0.40
     Davidson diagonalization with overlap
     ethr =  2.11E-11,  avg # of iterations =  2.1

     total cpu time spent up to now is      914.1 secs

     total energy              =    -151.74362298 Ry
     estimated scf accuracy    <          4.4E-10 Ry

     iteration # 22     ecut=    80.00 Ry     beta= 0.40
     Davidson diagonalization with overlap
     ethr =  1.83E-12,  avg # of iterations =  4.2

     total cpu time spent up to now is      953.8 secs

     total energy              =    -151.74362298 Ry
     estimated scf accuracy    <          1.4E-09 Ry

     iteration # 23     ecut=    80.00 Ry     beta= 0.40
     Davidson diagonalization with overlap
     ethr =  1.83E-12,  avg # of iterations =  1.0

     total cpu time spent up to now is      985.4 secs

     total energy              =    -151.74362298 Ry
     estimated scf accuracy    <          9.0E-10 Ry

     iteration # 24     ecut=    80.00 Ry     beta= 0.40
     Davidson diagonalization with overlap
     ethr =  1.83E-12,  avg # of iterations =  2.3

     total cpu time spent up to now is     1021.6 secs

     End of self-consistent calculation

     Number of k-points >= 100: set verbosity='high' to print the bands.

     the Fermi energy is    10.4827 ev

!    total energy              =    -151.74362298 Ry
     estimated scf accuracy    <          3.7E-11 Ry
     smearing contrib. (-TS)   =      -0.00047389 Ry
     internal energy E=F+TS    =    -151.74314909 Ry

     The total energy is F=E-TS. E is the sum of the following terms:
     one-electron contribution =      -5.97484310 Ry
     hartree contribution      =      19.33877795 Ry
     xc contribution           =     -54.42049126 Ry
     ewald contribution        =    -110.68659268 Ry

     convergence has been achieved in  24 iterations

     Forces acting on atoms (cartesian axes, Ry/au):

     atom    1 type  1   force =     0.00000733   -0.00000669    0.00000636
     atom    2 type  2   force =    -0.00000184    0.00000168   -0.00000159
     atom    3 type  3   force =    -0.00000183    0.00000167   -0.00000159
     atom    4 type  3   force =    -0.00000183    0.00000167   -0.00000159
     atom    5 type  3   force =    -0.00000183    0.00000167   -0.00000159

     Total force =     0.000013     Total SCF correction =     0.000001


     Computing stress (Cartesian axis) and pressure

          total   stress  (Ry/bohr**3)                   (kbar)     P=        2.36
   0.00001601  -0.00000000  -0.00000000            2.36       -0.00       -0.00
  -0.00000000   0.00001601   0.00000000           -0.00        2.36        0.00
  -0.00000000   0.00000000   0.00001601           -0.00        0.00        2.36


     BFGS Geometry Optimization
     Energy error            =      0.0E+00
     Gradient error          =      7.3E-06
     Cell gradient error     =      3.2E-04


     number of scf cycles    =   1
     number of bfgs steps    =   0

     enthalpy new            =    -151.5859952795 Ry

     new trust radius        =       0.0348736619 bohr
     new conv_thr            =            1.0E-10 Ry

     new unit-cell volume =    452.58262 a.u.^3 (    67.06582 Ang^3 )
     density =      8.35194 g/cm^3

CELL_PARAMETERS (alat=  7.74040000)
   0.991903035  -0.000000000  -0.000000002
  -0.000000000   0.991903035   0.000000000
  -0.000000002   0.000000000   0.991903031

ATOMIC_POSITIONS (crystal)
Ba            0.5000009475        0.4999991358        0.5000008210
Au           -0.0000002378        0.0000002174       -0.0000002052
H             0.4999997634        0.0000002157       -0.0000002053
H            -0.0000002367        0.5000002156       -0.0000002053
H            -0.0000002365        0.0000002155        0.4999997948



     Writing output data file ./out/baauh3.save/
     NEW-OLD atomic charge density approx. for the potential
     extrapolated charge   23.40787, renormalised to   24.00000

     total cpu time spent up to now is     1046.6 secs

     Self-consistent Calculation

     iteration #  1     ecut=    80.00 Ry     beta= 0.40
     Davidson diagonalization with overlap
     c_bands:  1 eigenvalues not converged
     c_bands:  1 eigenvalues not converged
     c_bands:  1 eigenvalues not converged
     c_bands:  1 eigenvalues not converged
     c_bands:  1 eigenvalues not converged
     c_bands:  1 eigenvalues not converged
     c_bands:  1 eigenvalues not converged
     c_bands:  1 eigenvalues not converged
     ethr =  1.00E-06,  avg # of iterations = 10.4

     total cpu time spent up to now is     1171.1 secs

     total energy              =    -151.69616651 Ry
     estimated scf accuracy    <       0.04734283 Ry

     iteration #  2     ecut=    80.00 Ry     beta= 0.40
     Davidson diagonalization with overlap
     ethr =  1.97E-04,  avg # of iterations =  4.0

     total cpu time spent up to now is     1229.0 secs

     total energy              =    -151.74047041 Ry
     estimated scf accuracy    <       0.08414017 Ry

     iteration #  3     ecut=    80.00 Ry     beta= 0.40
     Davidson diagonalization with overlap
     ethr =  1.97E-04,  avg # of iterations =  1.6

     total cpu time spent up to now is     1263.9 secs

     total energy              =    -151.74187589 Ry
     estimated scf accuracy    <       0.01706406 Ry

     iteration #  4     ecut=    80.00 Ry     beta= 0.40
     Davidson diagonalization with overlap
     ethr =  7.11E-05,  avg # of iterations =  2.0

     total cpu time spent up to now is     1300.1 secs

     total energy              =    -151.74206989 Ry
     estimated scf accuracy    <       0.00467885 Ry

     iteration #  5     ecut=    80.00 Ry     beta= 0.40
     Davidson diagonalization with overlap
     ethr =  1.95E-05,  avg # of iterations =  3.4

     total cpu time spent up to now is     1339.3 secs

     total energy              =    -151.74276045 Ry
     estimated scf accuracy    <       0.00100667 Ry

     iteration #  6     ecut=    80.00 Ry     beta= 0.40
     Davidson diagonalization with overlap
     ethr =  4.19E-06,  avg # of iterations =  4.0

     total cpu time spent up to now is     1379.9 secs

     total energy              =    -151.74302967 Ry
     estimated scf accuracy    <       0.00065492 Ry

     iteration #  7     ecut=    80.00 Ry     beta= 0.40
     Davidson diagonalization with overlap
     ethr =  2.73E-06,  avg # of iterations =  1.2

     total cpu time spent up to now is     1412.0 secs

     total energy              =    -151.74307767 Ry
     estimated scf accuracy    <       0.00097988 Ry

     iteration #  8     ecut=    80.00 Ry     beta= 0.40
     Davidson diagonalization with overlap
     ethr =  2.73E-06,  avg # of iterations =  1.0

     total cpu time spent up to now is     1443.5 secs

     total energy              =    -151.74292633 Ry
     estimated scf accuracy    <       0.00105862 Ry

     iteration #  9     ecut=    80.00 Ry     beta= 0.40
     Davidson diagonalization with overlap
     ethr =  2.73E-06,  avg # of iterations =  1.0

     total cpu time spent up to now is     1475.2 secs

     total energy              =    -151.74274988 Ry
     estimated scf accuracy    <       0.00058569 Ry

     iteration # 10     ecut=    80.00 Ry     beta= 0.40
     Davidson diagonalization with overlap
     ethr =  2.44E-06,  avg # of iterations =  1.9

     total cpu time spent up to now is     1510.9 secs

     total energy              =    -151.74279558 Ry
     estimated scf accuracy    <       0.00008516 Ry

     iteration # 11     ecut=    80.00 Ry     beta= 0.40
     Davidson diagonalization with overlap
     c_bands:  1 eigenvalues not converged
     ethr =  3.55E-07,  avg # of iterations =  4.1

     total cpu time spent up to now is     1554.2 secs

     total energy              =    -151.74283170 Ry
     estimated scf accuracy    <       0.00002650 Ry

     iteration # 12     ecut=    80.00 Ry     beta= 0.40
     Davidson diagonalization with overlap
     ethr =  1.10E-07,  avg # of iterations =  2.0

     total cpu time spent up to now is     1590.5 secs

     total energy              =    -151.74280172 Ry
     estimated scf accuracy    <       0.00007488 Ry

     iteration # 13     ecut=    80.00 Ry     beta= 0.40
     Davidson diagonalization with overlap
     ethr =  1.10E-07,  avg # of iterations =  3.5

     total cpu time spent up to now is     1633.8 secs

     total energy              =    -151.74281093 Ry
     estimated scf accuracy    <       0.00000296 Ry

     iteration # 14     ecut=    80.00 Ry     beta= 0.40
     Davidson diagonalization with overlap
     ethr =  1.23E-08,  avg # of iterations =  4.6

     total cpu time spent up to now is     1690.2 secs

     total energy              =    -151.74281371 Ry
     estimated scf accuracy    <       0.00000381 Ry

     iteration # 15     ecut=    80.00 Ry     beta= 0.40
     Davidson diagonalization with overlap
     ethr =  1.23E-08,  avg # of iterations =  1.0

     total cpu time spent up to now is     1721.7 secs

     total energy              =    -151.74281335 Ry
     estimated scf accuracy    <       0.00000268 Ry

     iteration # 16     ecut=    80.00 Ry     beta= 0.40
     Davidson diagonalization with overlap
     ethr =  1.12E-08,  avg # of iterations =  1.0

     total cpu time spent up to now is     1753.5 secs

     total energy              =    -151.74281327 Ry
     estimated scf accuracy    <       0.00000158 Ry

     iteration # 17     ecut=    80.00 Ry     beta= 0.40
     Davidson diagonalization with overlap
     ethr =  6.60E-09,  avg # of iterations =  1.0

     total cpu time spent up to now is     1785.4 secs

     total energy              =    -151.74281284 Ry
     estimated scf accuracy    <       0.00000128 Ry

     iteration # 18     ecut=    80.00 Ry     beta= 0.40
     Davidson diagonalization with overlap
     ethr =  5.35E-09,  avg # of iterations =  1.9

     total cpu time spent up to now is     1824.3 secs

     total energy              =    -151.74281285 Ry
     estimated scf accuracy    <       0.00000022 Ry

     iteration # 19     ecut=    80.00 Ry     beta= 0.40
     Davidson diagonalization with overlap
     ethr =  9.07E-10,  avg # of iterations =  4.2

     total cpu time spent up to now is     1870.7 secs

     total energy              =    -151.74281293 Ry
     estimated scf accuracy    <          8.9E-09 Ry

     iteration # 20     ecut=    80.00 Ry     beta= 0.40
     Davidson diagonalization with overlap
     ethr =  3.69E-11,  avg # of iterations =  4.0

     total cpu time spent up to now is     1919.7 secs

     total energy              =    -151.74281294 Ry
     estimated scf accuracy    <       0.00000003 Ry

     iteration # 21     ecut=    80.00 Ry     beta= 0.40
     Davidson diagonalization with overlap
     ethr =  3.69E-11,  avg # of iterations =  2.1

     total cpu time spent up to now is     1955.1 secs

     total energy              =    -151.74281293 Ry
     estimated scf accuracy    <          6.0E-09 Ry

     iteration # 22     ecut=    80.00 Ry     beta= 0.40
     Davidson diagonalization with overlap
     ethr =  2.51E-11,  avg # of iterations =  4.1

     total cpu time spent up to now is     1997.2 secs

     total energy              =    -151.74281294 Ry
     estimated scf accuracy    <       0.00000003 Ry

     iteration # 23     ecut=    80.00 Ry     beta= 0.40
     Davidson diagonalization with overlap
     ethr =  2.51E-11,  avg # of iterations =  1.9

     total cpu time spent up to now is     2032.0 secs

     total energy              =    -151.74281294 Ry
     estimated scf accuracy    <       0.00000001 Ry

     iteration # 24     ecut=    80.00 Ry     beta= 0.40
     Davidson diagonalization with overlap
     ethr =  2.51E-11,  avg # of iterations =  3.7

     total cpu time spent up to now is     2069.4 secs

     total energy              =    -151.74281294 Ry
     estimated scf accuracy    <          3.6E-10 Ry

     iteration # 25     ecut=    80.00 Ry     beta= 0.40
     Davidson diagonalization with overlap
     ethr =  1.49E-12,  avg # of iterations =  2.1

     total cpu time spent up to now is     2112.9 secs

     total energy              =    -151.74281294 Ry
     estimated scf accuracy    <          2.8E-10 Ry

     iteration # 26     ecut=    80.00 Ry     beta= 0.40
     Davidson diagonalization with overlap
     ethr =  1.17E-12,  avg # of iterations =  1.5

     total cpu time spent up to now is     2147.2 secs

     End of self-consistent calculation

     Number of k-points >= 100: set verbosity='high' to print the bands.

     the Fermi energy is    10.8325 ev

!    total energy              =    -151.74281294 Ry
     estimated scf accuracy    <          6.6E-11 Ry
     smearing contrib. (-TS)   =      -0.00048503 Ry
     internal energy E=F+TS    =    -151.74232791 Ry

     The total energy is F=E-TS. E is the sum of the following terms:
     one-electron contribution =      -4.64722605 Ry
     hartree contribution      =      18.95408771 Ry
     xc contribution           =     -54.45905533 Ry
     ewald contribution        =    -111.59013423 Ry

     convergence has been achieved in  26 iterations

     Forces acting on atoms (cartesian axes, Ry/au):

     atom    1 type  1   force =     0.00001154    0.00001411   -0.00000399
     atom    2 type  2   force =    -0.00000285   -0.00000360    0.00000105
     atom    3 type  3   force =    -0.00000294   -0.00000352    0.00000100
     atom    4 type  3   force =    -0.00000288   -0.00000346    0.00000100
     atom    5 type  3   force =    -0.00000288   -0.00000352    0.00000094

     Total force =     0.000021     Total SCF correction =     0.000002


     Computing stress (Cartesian axis) and pressure

          total   stress  (Ry/bohr**3)                   (kbar)     P=       19.34
   0.00013150   0.00000000  -0.00000000           19.34        0.00       -0.00
   0.00000000   0.00013150  -0.00000000            0.00       19.34       -0.00
  -0.00000000  -0.00000000   0.00013150           -0.00       -0.00       19.34

     Energy error            =      3.0E-03
     Gradient error          =      1.4E-05
     Cell gradient error     =      2.1E-04


     number of scf cycles    =   2
     number of bfgs steps    =   1

     enthalpy old            =    -151.5859952795 Ry
     enthalpy new            =    -151.5889832309 Ry

     CASE: enthalpy_new < enthalpy_old

     new trust radius        =       0.0520982844 bohr
     new conv_thr            =            1.0E-12 Ry

     new unit-cell volume =    436.16031 a.u.^3 (    64.63229 Ang^3 )
     density =      8.66641 g/cm^3

CELL_PARAMETERS (alat=  7.74040000)
   0.979757604   0.000000032  -0.000000011
   0.000000032   0.979757632  -0.000000003
  -0.000000011  -0.000000003   0.979757578

ATOMIC_POSITIONS (crystal)
Ba            0.5000044515        0.5000034196        0.4999996084
Au           -0.0000011028       -0.0000008771        0.0000001143
H             0.4999988709       -0.0000008539        0.0000000985
H            -0.0000011100        0.4999991656        0.0000000984
H            -0.0000011096       -0.0000008543        0.5000000804



     Writing output data file ./out/baauh3.save/
     NEW-OLD atomic charge density approx. for the potential
     extrapolated charge   23.09700, renormalised to   24.00000

     total cpu time spent up to now is     2172.4 secs

     Self-consistent Calculation

     iteration #  1     ecut=    80.00 Ry     beta= 0.40
     Davidson diagonalization with overlap
     c_bands:  1 eigenvalues not converged
     c_bands:  1 eigenvalues not converged
     c_bands:  1 eigenvalues not converged
     c_bands:  1 eigenvalues not converged
     c_bands:  1 eigenvalues not converged
     c_bands:  1 eigenvalues not converged
     c_bands:  1 eigenvalues not converged
     c_bands:  1 eigenvalues not converged
     c_bands:  1 eigenvalues not converged
     c_bands:  1 eigenvalues not converged
     c_bands:  1 eigenvalues not converged
     c_bands:  1 eigenvalues not converged
     c_bands:  1 eigenvalues not converged
     c_bands:  1 eigenvalues not converged
     c_bands:  1 eigenvalues not converged
     c_bands:  1 eigenvalues not converged
     c_bands:  1 eigenvalues not converged
     c_bands:  1 eigenvalues not converged
     c_bands:  1 eigenvalues not converged
     c_bands:  1 eigenvalues not converged
     c_bands:  1 eigenvalues not converged
     c_bands:  1 eigenvalues not converged
     c_bands:  1 eigenvalues not converged
     c_bands:  1 eigenvalues not converged
     c_bands:  1 eigenvalues not converged
     c_bands:  1 eigenvalues not converged
     ethr =  1.00E-06,  avg # of iterations = 11.9

     total cpu time spent up to now is     2308.7 secs

     total energy              =    -151.63976364 Ry
     estimated scf accuracy    <       0.10075858 Ry

     iteration #  2     ecut=    80.00 Ry     beta= 0.40
     Davidson diagonalization with overlap
     ethr =  4.20E-04,  avg # of iterations =  4.0

     total cpu time spent up to now is     2361.6 secs

     total energy              =    -151.73201131 Ry
     estimated scf accuracy    <       0.18758340 Ry

     iteration #  3     ecut=    80.00 Ry     beta= 0.40
     Davidson diagonalization with overlap
     ethr =  4.20E-04,  avg # of iterations =  1.6

     total cpu time spent up to now is     2396.1 secs

     total energy              =    -151.73726459 Ry
     estimated scf accuracy    <       0.03373907 Ry

     iteration #  4     ecut=    80.00 Ry     beta= 0.40
     Davidson diagonalization with overlap
     ethr =  1.41E-04,  avg # of iterations =  2.0

     total cpu time spent up to now is     2432.3 secs

     total energy              =    -151.73770584 Ry
     estimated scf accuracy    <       0.00945928 Ry

     iteration #  5     ecut=    80.00 Ry     beta= 0.40
     Davidson diagonalization with overlap
     ethr =  3.94E-05,  avg # of iterations =  3.3

     total cpu time spent up to now is     2471.4 secs

     total energy              =    -151.73899046 Ry
     estimated scf accuracy    <       0.00228223 Ry

     iteration #  6     ecut=    80.00 Ry     beta= 0.40
     Davidson diagonalization with overlap
     ethr =  9.51E-06,  avg # of iterations =  3.9

     total cpu time spent up to now is     2511.3 secs

     total energy              =    -151.73954867 Ry
     estimated scf accuracy    <       0.00149904 Ry

     iteration #  7     ecut=    80.00 Ry     beta= 0.40
     Davidson diagonalization with overlap
     ethr =  6.25E-06,  avg # of iterations =  1.1

     total cpu time spent up to now is     2543.3 secs

     total energy              =    -151.73963206 Ry
     estimated scf accuracy    <       0.00221320 Ry

     iteration #  8     ecut=    80.00 Ry     beta= 0.40
     Davidson diagonalization with overlap
     ethr =  6.25E-06,  avg # of iterations =  1.0

     total cpu time spent up to now is     2574.9 secs

     total energy              =    -151.73957114 Ry
     estimated scf accuracy    <       0.00230346 Ry

     iteration #  9     ecut=    80.00 Ry     beta= 0.40
     Davidson diagonalization with overlap
     ethr =  6.25E-06,  avg # of iterations =  1.0

     total cpu time spent up to now is     2606.6 secs

     total energy              =    -151.73893451 Ry
     estimated scf accuracy    <       0.00205911 Ry

     iteration # 10     ecut=    80.00 Ry     beta= 0.40
     Davidson diagonalization with overlap
     ethr =  6.25E-06,  avg # of iterations =  2.0

     total cpu time spent up to now is     2642.6 secs

     total energy              =    -151.73903430 Ry
     estimated scf accuracy    <       0.00036356 Ry

     iteration # 11     ecut=    80.00 Ry     beta= 0.40
     Davidson diagonalization with overlap
     ethr =  1.51E-06,  avg # of iterations =  3.2

     total cpu time spent up to now is     2681.4 secs

     total energy              =    -151.73910399 Ry
     estimated scf accuracy    <       0.00013019 Ry

     iteration # 12     ecut=    80.00 Ry     beta= 0.40
     Davidson diagonalization with overlap
     ethr =  5.42E-07,  avg # of iterations =  1.9

     total cpu time spent up to now is     2716.6 secs

     total energy              =    -151.73910910 Ry
     estimated scf accuracy    <       0.00018892 Ry

     iteration # 13     ecut=    80.00 Ry     beta= 0.40
     Davidson diagonalization with overlap
     ethr =  5.42E-07,  avg # of iterations =  1.0

     total cpu time spent up to now is     2748.2 secs

     total energy              =    -151.73900796 Ry
     estimated scf accuracy    <       0.00017895 Ry

     iteration # 14     ecut=    80.00 Ry     beta= 0.40
     Davidson diagonalization with overlap
     ethr =  5.42E-07,  avg # of iterations =  4.1

     total cpu time spent up to now is     2794.0 secs

     total energy              =    -151.73906780 Ry
     estimated scf accuracy    <       0.00001513 Ry

     iteration # 15     ecut=    80.00 Ry     beta= 0.40
     Davidson diagonalization with overlap
     ethr =  6.30E-08,  avg # of iterations =  2.9

     total cpu time spent up to now is     2832.9 secs

     total energy              =    -151.73906523 Ry
     estimated scf accuracy    <       0.00001624 Ry

     iteration # 16     ecut=    80.00 Ry     beta= 0.40
     Davidson diagonalization with overlap
     ethr =  6.30E-08,  avg # of iterations =  1.5

     total cpu time spent up to now is     2866.6 secs

     total energy              =    -151.73906596 Ry
     estimated scf accuracy    <       0.00000279 Ry

     iteration # 17     ecut=    80.00 Ry     beta= 0.40
     Davidson diagonalization with overlap
     ethr =  1.16E-08,  avg # of iterations =  2.1

     total cpu time spent up to now is     2905.2 secs

     total energy              =    -151.73906636 Ry
     estimated scf accuracy    <       0.00000207 Ry

     iteration # 18     ecut=    80.00 Ry     beta= 0.40
     Davidson diagonalization with overlap
     ethr =  8.63E-09,  avg # of iterations =  1.1

     total cpu time spent up to now is     2950.1 secs

     total energy              =    -151.73906644 Ry
     estimated scf accuracy    <       0.00000126 Ry

     iteration # 19     ecut=    80.00 Ry     beta= 0.40
     Davidson diagonalization with overlap
     ethr =  5.23E-09,  avg # of iterations =  1.2

     total cpu time spent up to now is     2983.2 secs

     total energy              =    -151.73906634 Ry
     estimated scf accuracy    <       0.00000114 Ry

     iteration # 20     ecut=    80.00 Ry     beta= 0.40
     Davidson diagonalization with overlap
     ethr =  4.77E-09,  avg # of iterations =  1.0

     total cpu time spent up to now is     3014.9 secs

     total energy              =    -151.73906600 Ry
     estimated scf accuracy    <       0.00000075 Ry

     iteration # 21     ecut=    80.00 Ry     beta= 0.40
     Davidson diagonalization with overlap
     ethr =  3.12E-09,  avg # of iterations =  2.9

     total cpu time spent up to now is     3056.8 secs

     total energy              =    -151.73906624 Ry
     estimated scf accuracy    <       0.00000133 Ry

     iteration # 22     ecut=    80.00 Ry     beta= 0.40
     Davidson diagonalization with overlap
     ethr =  3.12E-09,  avg # of iterations =  1.7

     total cpu time spent up to now is     3091.4 secs

     total energy              =    -151.73906626 Ry
     estimated scf accuracy    <       0.00000278 Ry

     iteration # 23     ecut=    80.00 Ry     beta= 0.40
     Davidson diagonalization with overlap
     ethr =  3.12E-09,  avg # of iterations =  1.1

     total cpu time spent up to now is     3123.5 secs

     total energy              =    -151.73906616 Ry
     estimated scf accuracy    <       0.00000346 Ry

     iteration # 24     ecut=    80.00 Ry     beta= 0.40
     Davidson diagonalization with overlap
     ethr =  3.12E-09,  avg # of iterations =  2.1

     total cpu time spent up to now is     3158.9 secs

     total energy              =    -151.73906615 Ry
     estimated scf accuracy    <       0.00000113 Ry

     iteration # 25     ecut=    80.00 Ry     beta= 0.40
     Davidson diagonalization with overlap
     ethr =  3.12E-09,  avg # of iterations =  1.8

     total cpu time spent up to now is     3193.3 secs

     total energy              =    -151.73906616 Ry
     estimated scf accuracy    <       0.00000019 Ry

     iteration # 26     ecut=    80.00 Ry     beta= 0.40
     Davidson diagonalization with overlap
     ethr =  7.99E-10,  avg # of iterations =  2.3

     total cpu time spent up to now is     3229.1 secs

     total energy              =    -151.73906617 Ry
     estimated scf accuracy    <       0.00000001 Ry

     iteration # 27     ecut=    80.00 Ry     beta= 0.40
     Davidson diagonalization with overlap
     ethr =  5.61E-11,  avg # of iterations =  3.6

     total cpu time spent up to now is     3269.8 secs

     total energy              =    -151.73906618 Ry
     estimated scf accuracy    <       0.00000011 Ry

     iteration # 28     ecut=    80.00 Ry     beta= 0.40
     Davidson diagonalization with overlap
     ethr =  5.61E-11,  avg # of iterations =  1.0

     total cpu time spent up to now is     3304.3 secs

     total energy              =    -151.73906618 Ry
     estimated scf accuracy    <       0.00000011 Ry

     iteration # 29     ecut=    80.00 Ry     beta= 0.40
     Davidson diagonalization with overlap
     ethr =  5.61E-11,  avg # of iterations =  1.6

     total cpu time spent up to now is     3340.7 secs

     total energy              =    -151.73906618 Ry
     estimated scf accuracy    <       0.00000006 Ry

     iteration # 30     ecut=    80.00 Ry     beta= 0.40
     Davidson diagonalization with overlap
     ethr =  5.61E-11,  avg # of iterations =  1.0

     total cpu time spent up to now is     3372.3 secs

     total energy              =    -151.73906618 Ry
     estimated scf accuracy    <       0.00000006 Ry

     iteration # 31     ecut=    80.00 Ry     beta= 0.40
     Davidson diagonalization with overlap
     ethr =  5.61E-11,  avg # of iterations =  1.0

     total cpu time spent up to now is     3404.2 secs

     total energy              =    -151.73906618 Ry
     estimated scf accuracy    <       0.00000005 Ry

     iteration # 32     ecut=    80.00 Ry     beta= 0.40
     Davidson diagonalization with overlap
     ethr =  5.61E-11,  avg # of iterations =  2.6

     total cpu time spent up to now is     3448.2 secs

     total energy              =    -151.73906618 Ry
     estimated scf accuracy    <          7.5E-09 Ry

     iteration # 33     ecut=    80.00 Ry     beta= 0.40
     Davidson diagonalization with overlap
     ethr =  3.13E-11,  avg # of iterations =  2.7

     total cpu time spent up to now is     3485.0 secs

     total energy              =    -151.73906618 Ry
     estimated scf accuracy    <          1.8E-09 Ry

     iteration # 34     ecut=    80.00 Ry     beta= 0.40
     Davidson diagonalization with overlap
     ethr =  7.50E-12,  avg # of iterations =  2.9

     total cpu time spent up to now is     3522.7 secs

     total energy              =    -151.73906618 Ry
     estimated scf accuracy    <          4.8E-09 Ry

     iteration # 35     ecut=    80.00 Ry     beta= 0.40
     Davidson diagonalization with overlap
     ethr =  7.50E-12,  avg # of iterations =  1.2

     total cpu time spent up to now is     3554.8 secs

     total energy              =    -151.73906618 Ry
     estimated scf accuracy    <          5.6E-09 Ry

     iteration # 36     ecut=    80.00 Ry     beta= 0.40
     Davidson diagonalization with overlap
     ethr =  7.50E-12,  avg # of iterations =  2.1

     total cpu time spent up to now is     3590.7 secs

     total energy              =    -151.73906618 Ry
     estimated scf accuracy    <       0.00000001 Ry

     iteration # 37     ecut=    80.00 Ry     beta= 0.40
     Davidson diagonalization with overlap
     ethr =  7.50E-12,  avg # of iterations =  1.9

     total cpu time spent up to now is     3626.0 secs

     total energy              =    -151.73906618 Ry
     estimated scf accuracy    <          6.5E-09 Ry

     iteration # 38     ecut=    80.00 Ry     beta= 0.40
     Davidson diagonalization with overlap
     ethr =  7.50E-12,  avg # of iterations =  1.3

     total cpu time spent up to now is     3658.7 secs

     total energy              =    -151.73906618 Ry
     estimated scf accuracy    <          3.2E-09 Ry

     iteration # 39     ecut=    80.00 Ry     beta= 0.40
     Davidson diagonalization with overlap
     ethr =  7.50E-12,  avg # of iterations =  3.9

     total cpu time spent up to now is     3698.7 secs

     total energy              =    -151.73906618 Ry
     estimated scf accuracy    <          2.6E-09 Ry

     iteration # 40     ecut=    80.00 Ry     beta= 0.40
     Davidson diagonalization with overlap
     ethr =  7.50E-12,  avg # of iterations =  1.0

     total cpu time spent up to now is     3730.3 secs

     total energy              =    -151.73906618 Ry
     estimated scf accuracy    <          2.3E-09 Ry

     iteration # 41     ecut=    80.00 Ry     beta= 0.40
     Davidson diagonalization with overlap
     ethr =  7.50E-12,  avg # of iterations =  1.1

     total cpu time spent up to now is     3762.4 secs

     total energy              =    -151.73906618 Ry
     estimated scf accuracy    <          5.5E-10 Ry

     iteration # 42     ecut=    80.00 Ry     beta= 0.40
     Davidson diagonalization with overlap
     ethr =  2.31E-12,  avg # of iterations =  1.1

     total cpu time spent up to now is     3800.4 secs

     total energy              =    -151.73906618 Ry
     estimated scf accuracy    <          2.8E-10 Ry

     iteration # 43     ecut=    80.00 Ry     beta= 0.40
     Davidson diagonalization with overlap
     ethr =  1.17E-12,  avg # of iterations =  2.2

     total cpu time spent up to now is     3837.8 secs

     total energy              =    -151.73906618 Ry
     estimated scf accuracy    <          4.7E-12 Ry

     iteration # 44     ecut=    80.00 Ry     beta= 0.40
     Davidson diagonalization with overlap
     ethr =  1.00E-13,  avg # of iterations =  5.0

     total cpu time spent up to now is     3880.8 secs

     total energy              =    -151.73906618 Ry
     estimated scf accuracy    <          3.6E-10 Ry

     iteration # 45     ecut=    80.00 Ry     beta= 0.40
     Davidson diagonalization with overlap
     ethr =  1.00E-13,  avg # of iterations =  4.0

     total cpu time spent up to now is     3920.5 secs

     total energy              =    -151.73906618 Ry
     estimated scf accuracy    <          1.8E-11 Ry

     iteration # 46     ecut=    80.00 Ry     beta= 0.40
     Davidson diagonalization with overlap
     ethr =  1.00E-13,  avg # of iterations =  1.3

     total cpu time spent up to now is     3953.5 secs

     total energy              =    -151.73906618 Ry
     estimated scf accuracy    <          2.3E-12 Ry

     iteration # 47     ecut=    80.00 Ry     beta= 0.40
     Davidson diagonalization with overlap
     ethr =  1.00E-13,  avg # of iterations =  1.8

     total cpu time spent up to now is     3988.3 secs

     total energy              =    -151.73906618 Ry
     estimated scf accuracy    <          3.6E-12 Ry

     iteration # 48     ecut=    80.00 Ry     beta= 0.40
     Davidson diagonalization with overlap
     ethr =  1.00E-13,  avg # of iterations =  1.0

     total cpu time spent up to now is     4020.1 secs

     total energy              =    -151.73906618 Ry
     estimated scf accuracy    <          3.0E-12 Ry

     iteration # 49     ecut=    80.00 Ry     beta= 0.40
     Davidson diagonalization with overlap
     ethr =  1.00E-13,  avg # of iterations =  1.0

     total cpu time spent up to now is     4051.7 secs

     total energy              =    -151.73906618 Ry
     estimated scf accuracy    <          2.1E-12 Ry

     iteration # 50     ecut=    80.00 Ry     beta= 0.40
     Davidson diagonalization with overlap
     ethr =  1.00E-13,  avg # of iterations =  1.0

     total cpu time spent up to now is     4090.0 secs

     End of self-consistent calculation

     Number of k-points >= 100: set verbosity='high' to print the bands.

     the Fermi energy is    11.3764 ev

!    total energy              =    -151.73906618 Ry
     estimated scf accuracy    <          6.3E-13 Ry
     smearing contrib. (-TS)   =      -0.00050178 Ry
     internal energy E=F+TS    =    -151.73856440 Ry

     The total energy is F=E-TS. E is the sum of the following terms:
     one-electron contribution =      -2.62116511 Ry
     hartree contribution      =      18.37611366 Ry
     xc contribution           =     -54.52006714 Ry
     ewald contribution        =    -112.97344581 Ry

     convergence has been achieved in  50 iterations

     Forces acting on atoms (cartesian axes, Ry/au):

     atom    1 type  1   force =    -0.00000207   -0.00000103    0.00000030
     atom    2 type  2   force =     0.00000085    0.00000054   -0.00000011
     atom    3 type  3   force =     0.00000012    0.00000028   -0.00000008
     atom    4 type  3   force =     0.00000055   -0.00000006   -0.00000008
     atom    5 type  3   force =     0.00000055    0.00000028   -0.00000003

     Total force =     0.000003     Total SCF correction =     0.000000


     Computing stress (Cartesian axis) and pressure

          total   stress  (Ry/bohr**3)                   (kbar)     P=       48.72
   0.00033122   0.00000000  -0.00000000           48.72        0.00       -0.00
   0.00000000   0.00033122   0.00000000            0.00       48.72        0.00
  -0.00000000   0.00000000   0.00033122           -0.00        0.00       48.72

     Energy error            =      1.8E-03
     Gradient error          =      2.1E-06
     Cell gradient error     =      8.7E-06


     number of scf cycles    =   3
     number of bfgs steps    =   2

     enthalpy old            =    -151.5889832309 Ry
     enthalpy new            =    -151.5908183000 Ry

     CASE: enthalpy_new < enthalpy_old

     new trust radius        =       0.0021905506 bohr
     new conv_thr            =            1.0E-12 Ry

     new unit-cell volume =    435.47445 a.u.^3 (    64.53066 Ang^3 )
     density =      8.68006 g/cm^3

CELL_PARAMETERS (alat=  7.74040000)
   0.979243778   0.000000033  -0.000000012
   0.000000033   0.979243816  -0.000000003
  -0.000000012  -0.000000003   0.979243749

ATOMIC_POSITIONS (crystal)
Ba            0.5000042644        0.5000033880        0.4999996178
Au           -0.0000010120       -0.0000008323        0.0000001074
H             0.4999988655       -0.0000008435        0.0000000958
H            -0.0000010592        0.4999991316        0.0000000957
H            -0.0000010587       -0.0000008438        0.5000000834



     Writing output data file ./out/baauh3.save/
     NEW-OLD atomic charge density approx. for the potential
     extrapolated charge   23.96223, renormalised to   24.00000

     total cpu time spent up to now is     4117.2 secs

     Self-consistent Calculation

     iteration #  1     ecut=    80.00 Ry     beta= 0.40
     Davidson diagonalization with overlap
     ethr =  1.00E-06,  avg # of iterations =  2.0

     total cpu time spent up to now is     4164.8 secs

     total energy              =    -151.73865668 Ry
     estimated scf accuracy    <       0.00018005 Ry

     iteration #  2     ecut=    80.00 Ry     beta= 0.40
     Davidson diagonalization with overlap
     ethr =  7.50E-07,  avg # of iterations =  4.0

     total cpu time spent up to now is     4212.2 secs

     total energy              =    -151.73883355 Ry
     estimated scf accuracy    <       0.00026704 Ry

     iteration #  3     ecut=    80.00 Ry     beta= 0.40
     Davidson diagonalization with overlap
     ethr =  7.50E-07,  avg # of iterations =  1.6

     total cpu time spent up to now is     4246.3 secs

     total energy              =    -151.73883236 Ry
     estimated scf accuracy    <       0.00006539 Ry

     iteration #  4     ecut=    80.00 Ry     beta= 0.40
     Davidson diagonalization with overlap
     ethr =  2.72E-07,  avg # of iterations =  2.0

     total cpu time spent up to now is     4282.6 secs

     total energy              =    -151.73883431 Ry
     estimated scf accuracy    <       0.00001642 Ry

     iteration #  5     ecut=    80.00 Ry     beta= 0.40
     Davidson diagonalization with overlap
     ethr =  6.84E-08,  avg # of iterations =  2.8

     total cpu time spent up to now is     4320.4 secs

     total energy              =    -151.73883597 Ry
     estimated scf accuracy    <       0.00000510 Ry

     iteration #  6     ecut=    80.00 Ry     beta= 0.40
     Davidson diagonalization with overlap
     ethr =  2.13E-08,  avg # of iterations =  2.9

     total cpu time spent up to now is     4357.6 secs

     total energy              =    -151.73883672 Ry
     estimated scf accuracy    <       0.00000364 Ry

     iteration #  7     ecut=    80.00 Ry     beta= 0.40
     Davidson diagonalization with overlap
     ethr =  1.52E-08,  avg # of iterations =  1.0

     total cpu time spent up to now is     4389.4 secs

     total energy              =    -151.73883690 Ry
     estimated scf accuracy    <       0.00000426 Ry

     iteration #  8     ecut=    80.00 Ry     beta= 0.40
     Davidson diagonalization with overlap
     ethr =  1.52E-08,  avg # of iterations =  1.0

     total cpu time spent up to now is     4421.0 secs

     total energy              =    -151.73883580 Ry
     estimated scf accuracy    <       0.00000440 Ry

     iteration #  9     ecut=    80.00 Ry     beta= 0.40
     Davidson diagonalization with overlap
     ethr =  1.52E-08,  avg # of iterations =  1.5

     total cpu time spent up to now is     4454.6 secs

     total energy              =    -151.73883549 Ry
     estimated scf accuracy    <       0.00000121 Ry

     iteration # 10     ecut=    80.00 Ry     beta= 0.40
     Davidson diagonalization with overlap
     ethr =  5.05E-09,  avg # of iterations =  3.8

     total cpu time spent up to now is     4510.5 secs

     total energy              =    -151.73883583 Ry
     estimated scf accuracy    <       0.00000001 Ry

     iteration # 11     ecut=    80.00 Ry     beta= 0.40
     Davidson diagonalization with overlap
     ethr =  4.26E-11,  avg # of iterations =  5.8

     total cpu time spent up to now is     4572.5 secs

     total energy              =    -151.73883587 Ry
     estimated scf accuracy    <          5.5E-09 Ry

     iteration # 12     ecut=    80.00 Ry     beta= 0.40
     Davidson diagonalization with overlap
     ethr =  2.31E-11,  avg # of iterations =  4.0

     total cpu time spent up to now is     4622.6 secs

     total energy              =    -151.73883585 Ry
     estimated scf accuracy    <       0.00000005 Ry

     iteration # 13     ecut=    80.00 Ry     beta= 0.40
     Davidson diagonalization with overlap
     ethr =  2.31E-11,  avg # of iterations =  3.8

     total cpu time spent up to now is     4682.1 secs

     total energy              =    -151.73883586 Ry
     estimated scf accuracy    <          1.9E-09 Ry

     iteration # 14     ecut=    80.00 Ry     beta= 0.40
     Davidson diagonalization with overlap
     ethr =  7.72E-12,  avg # of iterations =  2.9

     total cpu time spent up to now is     4723.4 secs

     total energy              =    -151.73883586 Ry
     estimated scf accuracy    <          1.3E-10 Ry

     iteration # 15     ecut=    80.00 Ry     beta= 0.40
     Davidson diagonalization with overlap
     ethr =  5.37E-13,  avg # of iterations =  5.5

     total cpu time spent up to now is     4787.8 secs

     total energy              =    -151.73883586 Ry
     estimated scf accuracy    <          3.6E-10 Ry

     iteration # 16     ecut=    80.00 Ry     beta= 0.40
     Davidson diagonalization with overlap
     ethr =  5.37E-13,  avg # of iterations =  1.9

     total cpu time spent up to now is     4822.5 secs

     total energy              =    -151.73883586 Ry
     estimated scf accuracy    <          1.4E-10 Ry

     iteration # 17     ecut=    80.00 Ry     beta= 0.40
     Davidson diagonalization with overlap
     ethr =  5.37E-13,  avg # of iterations =  4.8

     total cpu time spent up to now is     4879.5 secs

     total energy              =    -151.73883586 Ry
     estimated scf accuracy    <          4.8E-10 Ry

     iteration # 18     ecut=    80.00 Ry     beta= 0.40
     Davidson diagonalization with overlap
     ethr =  5.37E-13,  avg # of iterations =  2.1

     total cpu time spent up to now is     4918.0 secs

     total energy              =    -151.73883586 Ry
     estimated scf accuracy    <          1.0E-10 Ry

     iteration # 19     ecut=    80.00 Ry     beta= 0.40
     Davidson diagonalization with overlap
     ethr =  4.22E-13,  avg # of iterations =  1.8

     total cpu time spent up to now is     4952.8 secs

     total energy              =    -151.73883586 Ry
     estimated scf accuracy    <          3.0E-11 Ry

     iteration # 20     ecut=    80.00 Ry     beta= 0.40
     Davidson diagonalization with overlap
     ethr =  1.26E-13,  avg # of iterations =  4.1

     total cpu time spent up to now is     4997.3 secs

     total energy              =    -151.73883586 Ry
     estimated scf accuracy    <          1.8E-12 Ry

     iteration # 21     ecut=    80.00 Ry     beta= 0.40
     Davidson diagonalization with overlap
     ethr =  1.00E-13,  avg # of iterations =  1.0

     total cpu time spent up to now is     5028.9 secs

     total energy              =    -151.73883586 Ry
     estimated scf accuracy    <          2.3E-12 Ry

     iteration # 22     ecut=    80.00 Ry     beta= 0.40
     Davidson diagonalization with overlap
     ethr =  1.00E-13,  avg # of iterations =  1.0

     total cpu time spent up to now is     5060.6 secs

     total energy              =    -151.73883586 Ry
     estimated scf accuracy    <          4.3E-12 Ry

     iteration # 23     ecut=    80.00 Ry     beta= 0.40
     Davidson diagonalization with overlap
     ethr =  1.00E-13,  avg # of iterations =  1.0

     total cpu time spent up to now is     5092.1 secs

     total energy              =    -151.73883586 Ry
     estimated scf accuracy    <          1.3E-12 Ry

     iteration # 24     ecut=    80.00 Ry     beta= 0.40
     Davidson diagonalization with overlap
     ethr =  1.00E-13,  avg # of iterations =  1.0

     total cpu time spent up to now is     5124.1 secs

     End of self-consistent calculation

     Number of k-points >= 100: set verbosity='high' to print the bands.

     the Fermi energy is    11.4000 ev

!    total energy              =    -151.73883586 Ry
     estimated scf accuracy    <          6.2E-13 Ry
     smearing contrib. (-TS)   =      -0.00050256 Ry
     internal energy E=F+TS    =    -151.73833330 Ry

     The total energy is F=E-TS. E is the sum of the following terms:
     one-electron contribution =      -2.53451452 Ry
     hartree contribution      =      18.35164085 Ry
     xc contribution           =     -54.52273498 Ry
     ewald contribution        =    -113.03272465 Ry

     convergence has been achieved in  24 iterations

     Forces acting on atoms (cartesian axes, Ry/au):

     atom    1 type  1   force =    -0.00000295   -0.00000377    0.00000030
     atom    2 type  2   force =     0.00000105    0.00000119   -0.00000011
     atom    3 type  3   force =     0.00000038    0.00000097   -0.00000008
     atom    4 type  3   force =     0.00000076    0.00000065   -0.00000008
     atom    5 type  3   force =     0.00000076    0.00000097   -0.00000003

     Total force =     0.000005     Total SCF correction =     0.000000


     Computing stress (Cartesian axis) and pressure

          total   stress  (Ry/bohr**3)                   (kbar)     P=       50.08
   0.00034043   0.00000000  -0.00000000           50.08        0.00       -0.00
   0.00000000   0.00034043  -0.00000000            0.00       50.08       -0.00
  -0.00000000  -0.00000000   0.00034043           -0.00       -0.00       50.08

     Energy error            =      2.8E-06
     Gradient error          =      3.8E-06
     Cell gradient error     =      5.4E-07


     bfgs converged in   4 scf cycles and   3 bfgs steps
     (criteria: energy <  1.0E-05 Ry, force <  1.0E-04Ry/Bohr, cell <  5.0E-01kbar)

     End of BFGS Geometry Optimization

     Final enthalpy =    -151.5908211027 Ry

     File ./out/baauh3.bfgs deleted, as requested
Begin final coordinates
     new unit-cell volume =    435.47445 a.u.^3 (    64.53066 Ang^3 )
     density =      8.68006 g/cm^3

CELL_PARAMETERS (alat=  7.74040000)
   0.979243778   0.000000033  -0.000000012
   0.000000033   0.979243816  -0.000000003
  -0.000000012  -0.000000003   0.979243749

ATOMIC_POSITIONS (crystal)
Ba            0.5000042644        0.5000033880        0.4999996178
Au           -0.0000010120       -0.0000008323        0.0000001074
H             0.4999988655       -0.0000008435        0.0000000958
H            -0.0000010592        0.4999991316        0.0000000957
H            -0.0000010587       -0.0000008438        0.5000000834
End final coordinates



     Writing output data file ./out/baauh3.save/

     Final scf calculation at the relaxed structure.
     The G-vectors are recalculated for the final unit cell
     Results may differ from those at the preceding step.

     Parallelization info
     --------------------
     sticks:   dense  smooth     PW     G-vecs:    dense   smooth      PW
     Min         586     293     84                23834     8423    1322
     Max         587     293     85                23837     8423    1327
     Sum        2933    1465    421               119177    42115    6619



     bravais-lattice index     =            1
     lattice parameter (alat)  =       7.7404  a.u.
     unit-cell volume          =     435.4744 (a.u.)^3
     number of atoms/cell      =            5
     number of atomic types    =            3
     number of electrons       =        24.00
     number of Kohn-Sham states=           16
     kinetic-energy cutoff     =      80.0000  Ry
     charge density cutoff     =     640.0000  Ry
     scf convergence threshold =      1.0E-12
     mixing beta               =       0.4000
     number of iterations used =            8  plain     mixing
     press convergence thresh. =      5.0E-01
     Exchange-correlation= PBE
                           (   1   4   3   4   0   0   0)

     celldm(1)=   7.740400  celldm(2)=   0.000000  celldm(3)=   0.000000
     celldm(4)=   0.000000  celldm(5)=   0.000000  celldm(6)=   0.000000

     crystal axes: (cart. coord. in units of alat)
               a(1) = (   0.979244   0.000000  -0.000000 )  
               a(2) = (   0.000000   0.979244  -0.000000 )  
               a(3) = (  -0.000000  -0.000000   0.979244 )  

     reciprocal axes: (cart. coord. in units 2 pi/alat)
               b(1) = (  1.021196 -0.000000  0.000000 )  
               b(2) = ( -0.000000  1.021196  0.000000 )  
               b(3) = (  0.000000  0.000000  1.021196 )  


     PseudoPot. # 1 for Ba read from file:
     ./pseudo/Ba.pbe-spn-rrkjus_psl.1.0.0.UPF
     MD5 check sum: 03210ee0890048675a516292961e2951
     Pseudo is Ultrasoft + core correction, Zval = 10.0
     Generated using &quot;atomic&quot; code by A. Dal Corso  v.6.2.2
     Using radial grid of 1251 points,  7 beta functions with: 
                l(1) =   0
                l(2) =   0
                l(3) =   0
                l(4) =   1
                l(5) =   1
                l(6) =   2
                l(7) =   2
     Q(r) pseudized with 0 coefficients 


     PseudoPot. # 2 for Au read from file:
     ./pseudo/Au.pbe-n-rrkjus_psl.1.0.0.UPF
     MD5 check sum: 36a5134bc4f0d73a839546df15754897
     Pseudo is Ultrasoft + core correction, Zval = 11.0
     Generated using &quot;atomic&quot; code by A. Dal Corso  v.6.3
     Using radial grid of 1279 points,  6 beta functions with: 
                l(1) =   0
                l(2) =   0
                l(3) =   1
                l(4) =   1
                l(5) =   2
                l(6) =   2
     Q(r) pseudized with 0 coefficients 


     PseudoPot. # 3 for H  read from file:
     ./pseudo/H.pbe-rrkjus_psl.1.0.0.UPF
     MD5 check sum: 9e615844a0e642e0aee8526d0d0f65f7
     Pseudo is Ultrasoft, Zval =  1.0
     Generated using &quot;atomic&quot; code by A. Dal Corso  v.6.3MaX
     Using radial grid of  929 points,  2 beta functions with: 
                l(1) =   0
                l(2) =   0
     Q(r) pseudized with 0 coefficients 


     atomic species   valence    mass     pseudopotential
        Ba            10.00   137.32700     Ba( 1.00)
        Au            11.00   196.96700     Au( 1.00)
        H              1.00     1.00800     H ( 1.00)

     No symmetry found



   Cartesian axes

     site n.     atom                  positions (alat units)
         1           Ba  tau(   1) = (   0.4896261   0.4896252   0.4896215  )
         2           Au  tau(   2) = (  -0.0000010  -0.0000008   0.0000001  )
         3           H   tau(   3) = (   0.4896208  -0.0000008   0.0000001  )
         4           H   tau(   4) = (  -0.0000010   0.4896211   0.0000001  )
         5           H   tau(   5) = (  -0.0000010  -0.0000008   0.4896220  )

     number of k points=   868  Methfessel-Paxton smearing, width (Ry)=  0.0200

     Number of k-points >= 100: set verbosity='high' to print them.

     Dense  grid:   119177 G-vectors     FFT dimensions: (  64,  64,  64)

     Smooth grid:    42115 G-vectors     FFT dimensions: (  45,  45,  45)

     Estimated max dynamical RAM per process >     335.62 MB

     Estimated total dynamical RAM >       1.64 GB

     Initial potential from superposition of free atoms

     starting charge   23.98286, renormalised to   24.00000
     Starting wfcs are   17 randomized atomic wfcs

     total cpu time spent up to now is     5161.5 secs

     Self-consistent Calculation

     iteration #  1     ecut=    80.00 Ry     beta= 0.40
     Davidson diagonalization with overlap
     c_bands:  2 eigenvalues not converged
     c_bands:  5 eigenvalues not converged
     c_bands:  2 eigenvalues not converged
     c_bands:  4 eigenvalues not converged
     c_bands:  3 eigenvalues not converged
     c_bands:  3 eigenvalues not converged
     c_bands:  2 eigenvalues not converged
     c_bands:  4 eigenvalues not converged
     c_bands:  4 eigenvalues not converged
     c_bands:  5 eigenvalues not converged
     c_bands:  4 eigenvalues not converged
     c_bands:  4 eigenvalues not converged
     c_bands:  3 eigenvalues not converged
     c_bands:  2 eigenvalues not converged
     c_bands:  3 eigenvalues not converged
     c_bands:  5 eigenvalues not converged
     c_bands:  4 eigenvalues not converged
     c_bands:  3 eigenvalues not converged
     c_bands:  5 eigenvalues not converged
     c_bands:  2 eigenvalues not converged
     c_bands:  4 eigenvalues not converged
     c_bands:  3 eigenvalues not converged
     c_bands:  2 eigenvalues not converged
     c_bands:  3 eigenvalues not converged
     c_bands:  3 eigenvalues not converged
     c_bands:  2 eigenvalues not converged
     c_bands:  3 eigenvalues not converged
     c_bands:  2 eigenvalues not converged
     c_bands:  4 eigenvalues not converged
     c_bands:  3 eigenvalues not converged
     c_bands:  5 eigenvalues not converged
     c_bands:  2 eigenvalues not converged
     c_bands:  5 eigenvalues not converged
     c_bands:  2 eigenvalues not converged
     c_bands:  2 eigenvalues not converged
     c_bands:  1 eigenvalues not converged
     c_bands:  3 eigenvalues not converged
     c_bands:  3 eigenvalues not converged
     c_bands:  3 eigenvalues not converged
     c_bands:  4 eigenvalues not converged
     c_bands:  3 eigenvalues not converged
     c_bands:  2 eigenvalues not converged
     c_bands:  4 eigenvalues not converged
     c_bands:  3 eigenvalues not converged
     c_bands:  4 eigenvalues not converged
     c_bands:  3 eigenvalues not converged
     c_bands:  3 eigenvalues not converged
     c_bands:  4 eigenvalues not converged
     c_bands:  3 eigenvalues not converged
     c_bands:  4 eigenvalues not converged
     c_bands:  4 eigenvalues not converged
     c_bands:  4 eigenvalues not converged
     c_bands:  3 eigenvalues not converged
     c_bands:  3 eigenvalues not converged
     c_bands:  4 eigenvalues not converged
     c_bands:  3 eigenvalues not converged
     c_bands:  4 eigenvalues not converged
     c_bands:  3 eigenvalues not converged
     c_bands:  3 eigenvalues not converged
     c_bands:  4 eigenvalues not converged
     c_bands:  3 eigenvalues not converged
     c_bands:  3 eigenvalues not converged
     c_bands:  3 eigenvalues not converged
     c_bands:  3 eigenvalues not converged
     c_bands:  3 eigenvalues not converged
     c_bands:  2 eigenvalues not converged
     c_bands:  4 eigenvalues not converged
     c_bands:  2 eigenvalues not converged
     c_bands:  2 eigenvalues not converged
     c_bands:  2 eigenvalues not converged
     c_bands:  3 eigenvalues not converged
     c_bands:  4 eigenvalues not converged
     c_bands:  3 eigenvalues not converged
     c_bands:  3 eigenvalues not converged
     c_bands:  4 eigenvalues not converged
     c_bands:  4 eigenvalues not converged
     c_bands:  4 eigenvalues not converged
     c_bands:  4 eigenvalues not converged
     c_bands:  4 eigenvalues not converged
     c_bands:  4 eigenvalues not converged
     c_bands:  2 eigenvalues not converged
     c_bands:  4 eigenvalues not converged
     c_bands:  4 eigenvalues not converged
     c_bands:  4 eigenvalues not converged
     c_bands:  4 eigenvalues not converged
     c_bands:  4 eigenvalues not converged
     c_bands:  5 eigenvalues not converged
     c_bands:  3 eigenvalues not converged
     c_bands:  4 eigenvalues not converged
     c_bands:  3 eigenvalues not converged
     c_bands:  4 eigenvalues not converged
     c_bands:  4 eigenvalues not converged
     c_bands:  2 eigenvalues not converged
     c_bands:  4 eigenvalues not converged
     c_bands:  4 eigenvalues not converged
     c_bands:  4 eigenvalues not converged
     c_bands:  5 eigenvalues not converged
     c_bands:  3 eigenvalues not converged
     c_bands:  3 eigenvalues not converged
     c_bands:  4 eigenvalues not converged
     c_bands:  3 eigenvalues not converged
     c_bands:  4 eigenvalues not converged
     c_bands:  3 eigenvalues not converged
     c_bands:  3 eigenvalues not converged
     c_bands:  3 eigenvalues not converged
     c_bands:  3 eigenvalues not converged
     c_bands:  3 eigenvalues not converged
     c_bands:  4 eigenvalues not converged
     c_bands:  4 eigenvalues not converged
     c_bands:  5 eigenvalues not converged
     c_bands:  4 eigenvalues not converged
     c_bands:  3 eigenvalues not converged
     c_bands:  4 eigenvalues not converged
     c_bands:  3 eigenvalues not converged
     c_bands:  3 eigenvalues not converged
     c_bands:  3 eigenvalues not converged
     c_bands:  3 eigenvalues not converged
     c_bands:  3 eigenvalues not converged
     c_bands:  4 eigenvalues not converged
     c_bands:  3 eigenvalues not converged
     c_bands:  4 eigenvalues not converged
     c_bands:  5 eigenvalues not converged
     c_bands:  5 eigenvalues not converged
     c_bands:  4 eigenvalues not converged
     c_bands:  3 eigenvalues not converged
     c_bands:  3 eigenvalues not converged
     c_bands:  4 eigenvalues not converged
     c_bands:  4 eigenvalues not converged
     c_bands:  4 eigenvalues not converged
     c_bands:  3 eigenvalues not converged
     c_bands:  4 eigenvalues not converged
     c_bands:  3 eigenvalues not converged
     c_bands:  4 eigenvalues not converged
     c_bands:  4 eigenvalues not converged
     c_bands:  4 eigenvalues not converged
     c_bands:  4 eigenvalues not converged
     c_bands:  3 eigenvalues not converged
     c_bands:  4 eigenvalues not converged
     c_bands:  4 eigenvalues not converged
     c_bands:  4 eigenvalues not converged
     c_bands:  3 eigenvalues not converged
     c_bands:  4 eigenvalues not converged
     c_bands:  4 eigenvalues not converged
     c_bands:  3 eigenvalues not converged
     c_bands:  3 eigenvalues not converged
     c_bands:  4 eigenvalues not converged
     c_bands:  2 eigenvalues not converged
     c_bands:  3 eigenvalues not converged
     c_bands:  3 eigenvalues not converged
     c_bands:  3 eigenvalues not converged
     c_bands:  4 eigenvalues not converged
     c_bands:  3 eigenvalues not converged
     c_bands:  3 eigenvalues not converged
     c_bands:  3 eigenvalues not converged
     c_bands:  4 eigenvalues not converged
     c_bands:  3 eigenvalues not converged
     c_bands:  3 eigenvalues not converged
     c_bands:  2 eigenvalues not converged
     c_bands:  4 eigenvalues not converged
     c_bands:  4 eigenvalues not converged
     c_bands:  3 eigenvalues not converged
     c_bands:  4 eigenvalues not converged
     c_bands:  4 eigenvalues not converged
     c_bands:  4 eigenvalues not converged
     c_bands:  3 eigenvalues not converged
     c_bands:  4 eigenvalues not converged
     c_bands:  4 eigenvalues not converged
     c_bands:  3 eigenvalues not converged
     c_bands:  3 eigenvalues not converged
     c_bands:  4 eigenvalues not converged
     c_bands:  4 eigenvalues not converged
     c_bands:  4 eigenvalues not converged
     c_bands:  3 eigenvalues not converged
     c_bands:  3 eigenvalues not converged
     c_bands:  3 eigenvalues not converged
     c_bands:  4 eigenvalues not converged
     c_bands:  4 eigenvalues not converged
     c_bands:  4 eigenvalues not converged
     c_bands:  4 eigenvalues not converged
     c_bands:  3 eigenvalues not converged
     c_bands:  3 eigenvalues not converged
     c_bands:  4 eigenvalues not converged
     c_bands:  5 eigenvalues not converged
     c_bands:  4 eigenvalues not converged
     c_bands:  4 eigenvalues not converged
     c_bands:  2 eigenvalues not converged
     c_bands:  3 eigenvalues not converged
     c_bands:  3 eigenvalues not converged
     c_bands:  3 eigenvalues not converged
     c_bands:  3 eigenvalues not converged
     c_bands:  3 eigenvalues not converged
     c_bands:  4 eigenvalues not converged
     c_bands:  4 eigenvalues not converged
     c_bands:  4 eigenvalues not converged
     c_bands:  3 eigenvalues not converged
     c_bands:  5 eigenvalues not converged
     c_bands:  4 eigenvalues not converged
     c_bands:  4 eigenvalues not converged
     c_bands:  3 eigenvalues not converged
     c_bands:  3 eigenvalues not converged
     c_bands:  3 eigenvalues not converged
     c_bands:  3 eigenvalues not converged
     c_bands:  4 eigenvalues not converged
     c_bands:  4 eigenvalues not converged
     c_bands:  4 eigenvalues not converged
     c_bands:  5 eigenvalues not converged
     c_bands:  5 eigenvalues not converged
     c_bands:  4 eigenvalues not converged
     c_bands:  5 eigenvalues not converged
     c_bands:  4 eigenvalues not converged
     c_bands:  3 eigenvalues not converged
     c_bands:  4 eigenvalues not converged
     c_bands:  2 eigenvalues not converged
     c_bands:  4 eigenvalues not converged
     c_bands:  4 eigenvalues not converged
     c_bands:  5 eigenvalues not converged
     c_bands:  5 eigenvalues not converged
     c_bands:  3 eigenvalues not converged
     c_bands:  2 eigenvalues not converged
     c_bands:  5 eigenvalues not converged
     c_bands:  3 eigenvalues not converged
     c_bands:  4 eigenvalues not converged
     c_bands:  3 eigenvalues not converged
     c_bands:  1 eigenvalues not converged
     c_bands:  2 eigenvalues not converged
     c_bands:  3 eigenvalues not converged
     c_bands:  3 eigenvalues not converged
     c_bands:  4 eigenvalues not converged
     c_bands:  2 eigenvalues not converged
     c_bands:  3 eigenvalues not converged
     c_bands:  3 eigenvalues not converged
     c_bands:  5 eigenvalues not converged
     c_bands:  4 eigenvalues not converged
     c_bands:  4 eigenvalues not converged
     c_bands:  3 eigenvalues not converged
     c_bands:  3 eigenvalues not converged
     c_bands:  2 eigenvalues not converged
     c_bands:  3 eigenvalues not converged
     c_bands:  4 eigenvalues not converged
     c_bands:  3 eigenvalues not converged
     c_bands:  4 eigenvalues not converged
     c_bands:  5 eigenvalues not converged
     c_bands:  2 eigenvalues not converged
     c_bands:  3 eigenvalues not converged
     c_bands:  3 eigenvalues not converged
     c_bands:  3 eigenvalues not converged
     c_bands:  3 eigenvalues not converged
     c_bands:  3 eigenvalues not converged
     c_bands:  3 eigenvalues not converged
     c_bands:  3 eigenvalues not converged
     c_bands:  3 eigenvalues not converged
     c_bands:  3 eigenvalues not converged
     c_bands:  3 eigenvalues not converged
     c_bands:  4 eigenvalues not converged
     c_bands:  2 eigenvalues not converged
     c_bands:  4 eigenvalues not converged
     c_bands:  3 eigenvalues not converged
     c_bands:  3 eigenvalues not converged
     c_bands:  3 eigenvalues not converged
     c_bands:  3 eigenvalues not converged
     c_bands:  3 eigenvalues not converged
     c_bands:  3 eigenvalues not converged
     c_bands:  3 eigenvalues not converged
     c_bands:  3 eigenvalues not converged
     c_bands:  3 eigenvalues not converged
     c_bands:  4 eigenvalues not converged
     c_bands:  3 eigenvalues not converged
     c_bands:  3 eigenvalues not converged
     c_bands:  3 eigenvalues not converged
     c_bands:  3 eigenvalues not converged
     c_bands:  3 eigenvalues not converged
     c_bands:  3 eigenvalues not converged
     c_bands:  3 eigenvalues not converged
     c_bands:  3 eigenvalues not converged
     c_bands:  3 eigenvalues not converged
     c_bands:  3 eigenvalues not converged
     c_bands:  3 eigenvalues not converged
     c_bands:  3 eigenvalues not converged
     c_bands:  3 eigenvalues not converged
     c_bands:  3 eigenvalues not converged
     c_bands:  3 eigenvalues not converged
     c_bands:  4 eigenvalues not converged
     c_bands:  3 eigenvalues not converged
     c_bands:  3 eigenvalues not converged
     c_bands:  2 eigenvalues not converged
     c_bands:  3 eigenvalues not converged
     c_bands:  3 eigenvalues not converged
     c_bands:  4 eigenvalues not converged
     c_bands:  3 eigenvalues not converged
     c_bands:  3 eigenvalues not converged
     c_bands:  3 eigenvalues not converged
     c_bands:  2 eigenvalues not converged
     c_bands:  4 eigenvalues not converged
     c_bands:  3 eigenvalues not converged
     c_bands:  3 eigenvalues not converged
     c_bands:  3 eigenvalues not converged
     c_bands:  2 eigenvalues not converged
     c_bands:  2 eigenvalues not converged
     c_bands:  3 eigenvalues not converged
     c_bands:  3 eigenvalues not converged
     c_bands:  2 eigenvalues not converged
     c_bands:  2 eigenvalues not converged
     c_bands:  3 eigenvalues not converged
     c_bands:  3 eigenvalues not converged
     c_bands:  3 eigenvalues not converged
     c_bands:  4 eigenvalues not converged
     c_bands:  3 eigenvalues not converged
     c_bands:  4 eigenvalues not converged
     c_bands:  2 eigenvalues not converged
     c_bands:  3 eigenvalues not converged
     c_bands:  3 eigenvalues not converged
     c_bands:  4 eigenvalues not converged
     c_bands:  3 eigenvalues not converged
     c_bands:  3 eigenvalues not converged
     c_bands:  3 eigenvalues not converged
     c_bands:  3 eigenvalues not converged
     c_bands:  3 eigenvalues not converged
     c_bands:  3 eigenvalues not converged
     c_bands:  3 eigenvalues not converged
     c_bands:  4 eigenvalues not converged
     c_bands:  3 eigenvalues not converged
     c_bands:  4 eigenvalues not converged
     c_bands:  3 eigenvalues not converged
     c_bands:  3 eigenvalues not converged
     c_bands:  3 eigenvalues not converged
     c_bands:  3 eigenvalues not converged
     c_bands:  3 eigenvalues not converged
     c_bands:  4 eigenvalues not converged
     c_bands:  3 eigenvalues not converged
     c_bands:  3 eigenvalues not converged
     c_bands:  3 eigenvalues not converged
     c_bands:  3 eigenvalues not converged
     c_bands:  3 eigenvalues not converged
     c_bands:  4 eigenvalues not converged
     c_bands:  3 eigenvalues not converged
     c_bands:  3 eigenvalues not converged
     c_bands:  3 eigenvalues not converged
     c_bands:  4 eigenvalues not converged
     c_bands:  4 eigenvalues not converged
     c_bands:  4 eigenvalues not converged
     c_bands:  3 eigenvalues not converged
     c_bands:  3 eigenvalues not converged
     c_bands:  3 eigenvalues not converged
     c_bands:  3 eigenvalues not converged
     c_bands:  4 eigenvalues not converged
     c_bands:  3 eigenvalues not converged
     c_bands:  3 eigenvalues not converged
     c_bands:  3 eigenvalues not converged
     c_bands:  3 eigenvalues not converged
     c_bands:  4 eigenvalues not converged
     c_bands:  4 eigenvalues not converged
     c_bands:  4 eigenvalues not converged
     c_bands:  4 eigenvalues not converged
     c_bands:  4 eigenvalues not converged
     c_bands:  3 eigenvalues not converged
     c_bands:  3 eigenvalues not converged
     c_bands:  2 eigenvalues not converged
     c_bands:  3 eigenvalues not converged
     c_bands:  4 eigenvalues not converged
     c_bands:  4 eigenvalues not converged
     c_bands:  3 eigenvalues not converged
     c_bands:  5 eigenvalues not converged
     c_bands:  3 eigenvalues not converged
     c_bands:  4 eigenvalues not converged
     c_bands:  3 eigenvalues not converged
     c_bands:  3 eigenvalues not converged
     c_bands:  3 eigenvalues not converged
     c_bands:  3 eigenvalues not converged
     c_bands:  2 eigenvalues not converged
     c_bands:  4 eigenvalues not converged
     c_bands:  3 eigenvalues not converged
     c_bands:  2 eigenvalues not converged
     c_bands:  3 eigenvalues not converged
     c_bands:  4 eigenvalues not converged
     c_bands:  4 eigenvalues not converged
     c_bands:  4 eigenvalues not converged
     c_bands:  4 eigenvalues not converged
     c_bands:  4 eigenvalues not converged
     c_bands:  3 eigenvalues not converged
     c_bands:  4 eigenvalues not converged
     c_bands:  3 eigenvalues not converged
     c_bands:  3 eigenvalues not converged
     c_bands:  3 eigenvalues not converged
     c_bands:  4 eigenvalues not converged
     c_bands:  4 eigenvalues not converged
     c_bands:  5 eigenvalues not converged
     c_bands:  3 eigenvalues not converged
     c_bands:  4 eigenvalues not converged
     c_bands:  1 eigenvalues not converged
     c_bands:  3 eigenvalues not converged
     c_bands:  3 eigenvalues not converged
     c_bands:  3 eigenvalues not converged
     c_bands:  3 eigenvalues not converged
     c_bands:  4 eigenvalues not converged
     c_bands:  3 eigenvalues not converged
     c_bands:  3 eigenvalues not converged
     c_bands:  3 eigenvalues not converged
     c_bands:  4 eigenvalues not converged
     c_bands:  3 eigenvalues not converged
     c_bands:  3 eigenvalues not converged
     c_bands:  3 eigenvalues not converged
     c_bands:  3 eigenvalues not converged
     c_bands:  3 eigenvalues not converged
     c_bands:  3 eigenvalues not converged
[...]
     c_bands:  4 eigenvalues not converged
     c_bands:  3 eigenvalues not converged
     c_bands:  3 eigenvalues not converged
     c_bands:  3 eigenvalues not converged
     c_bands:  2 eigenvalues not converged
     c_bands:  3 eigenvalues not converged
     c_bands:  3 eigenvalues not converged
     c_bands:  3 eigenvalues not converged
     c_bands:  4 eigenvalues not converged
     c_bands:  3 eigenvalues not converged
     c_bands:  4 eigenvalues not converged
     c_bands:  4 eigenvalues not converged
     c_bands:  4 eigenvalues not converged
     c_bands:  3 eigenvalues not converged
     c_bands:  3 eigenvalues not converged
     c_bands:  3 eigenvalues not converged
     c_bands:  3 eigenvalues not converged
     c_bands:  3 eigenvalues not converged
     c_bands:  3 eigenvalues not converged
     c_bands:  3 eigenvalues not converged
     c_bands:  4 eigenvalues not converged
     c_bands:  3 eigenvalues not converged
     c_bands:  3 eigenvalues not converged
     c_bands:  4 eigenvalues not converged
     c_bands:  3 eigenvalues not converged
     c_bands:  3 eigenvalues not converged
     c_bands:  3 eigenvalues not converged
     c_bands:  3 eigenvalues not converged
     c_bands:  3 eigenvalues not converged
     c_bands:  3 eigenvalues not converged
     c_bands:  3 eigenvalues not converged
     c_bands:  3 eigenvalues not converged
     c_bands:  3 eigenvalues not converged
     c_bands:  4 eigenvalues not converged
     c_bands:  4 eigenvalues not converged
     c_bands:  4 eigenvalues not converged
     c_bands:  3 eigenvalues not converged
     c_bands:  3 eigenvalues not converged
     c_bands:  3 eigenvalues not converged
     c_bands:  3 eigenvalues not converged
     c_bands:  3 eigenvalues not converged
     c_bands:  3 eigenvalues not converged
     c_bands:  3 eigenvalues not converged
     c_bands:  3 eigenvalues not converged
     c_bands:  3 eigenvalues not converged
     c_bands:  2 eigenvalues not converged
     c_bands:  3 eigenvalues not converged
     c_bands:  4 eigenvalues not converged
     c_bands:  3 eigenvalues not converged
     c_bands:  3 eigenvalues not converged
     c_bands:  3 eigenvalues not converged
     c_bands:  3 eigenvalues not converged
     c_bands:  3 eigenvalues not converged
     c_bands:  3 eigenvalues not converged
     c_bands:  3 eigenvalues not converged
     c_bands:  3 eigenvalues not converged
     c_bands:  3 eigenvalues not converged
     c_bands:  4 eigenvalues not converged
     c_bands:  3 eigenvalues not converged
     c_bands:  4 eigenvalues not converged
     c_bands:  3 eigenvalues not converged
     c_bands:  3 eigenvalues not converged
     c_bands:  3 eigenvalues not converged
     c_bands:  3 eigenvalues not converged
     c_bands:  3 eigenvalues not converged
     c_bands:  3 eigenvalues not converged
     c_bands:  3 eigenvalues not converged
     c_bands:  3 eigenvalues not converged
     c_bands:  3 eigenvalues not converged
     c_bands:  3 eigenvalues not converged
     c_bands:  4 eigenvalues not converged
     c_bands:  4 eigenvalues not converged
     c_bands:  3 eigenvalues not converged
     c_bands:  3 eigenvalues not converged
     c_bands:  3 eigenvalues not converged
     c_bands:  3 eigenvalues not converged
     c_bands:  3 eigenvalues not converged
     c_bands:  3 eigenvalues not converged
     c_bands:  3 eigenvalues not converged
     c_bands:  3 eigenvalues not converged
     c_bands:  3 eigenvalues not converged
     c_bands:  3 eigenvalues not converged
     c_bands:  3 eigenvalues not converged
     c_bands:  3 eigenvalues not converged
     c_bands:  3 eigenvalues not converged
     c_bands:  3 eigenvalues not converged
     c_bands:  3 eigenvalues not converged
     c_bands:  3 eigenvalues not converged
     c_bands:  3 eigenvalues not converged
     c_bands:  3 eigenvalues not converged
     c_bands:  3 eigenvalues not converged
     c_bands:  3 eigenvalues not converged
     c_bands:  3 eigenvalues not converged
     c_bands:  3 eigenvalues not converged
     c_bands:  4 eigenvalues not converged
     c_bands:  4 eigenvalues not converged
     c_bands:  3 eigenvalues not converged
     c_bands:  4 eigenvalues not converged
     c_bands:  3 eigenvalues not converged
     c_bands:  4 eigenvalues not converged
     c_bands:  2 eigenvalues not converged
     c_bands:  4 eigenvalues not converged
     c_bands:  4 eigenvalues not converged
     c_bands:  4 eigenvalues not converged
     c_bands:  3 eigenvalues not converged
     c_bands:  4 eigenvalues not converged
     c_bands:  2 eigenvalues not converged
     c_bands:  2 eigenvalues not converged
     c_bands:  2 eigenvalues not converged
     c_bands:  4 eigenvalues not converged
     c_bands:  4 eigenvalues not converged
     c_bands:  3 eigenvalues not converged
     c_bands:  3 eigenvalues not converged
     c_bands:  2 eigenvalues not converged
     c_bands:  3 eigenvalues not converged
     c_bands:  3 eigenvalues not converged
     c_bands:  2 eigenvalues not converged
     c_bands:  4 eigenvalues not converged
     c_bands:  3 eigenvalues not converged
     c_bands:  3 eigenvalues not converged
     c_bands:  2 eigenvalues not converged
     c_bands:  4 eigenvalues not converged
     c_bands:  4 eigenvalues not converged
     c_bands:  2 eigenvalues not converged
     c_bands:  2 eigenvalues not converged
     c_bands:  2 eigenvalues not converged
     c_bands:  3 eigenvalues not converged
     c_bands:  3 eigenvalues not converged
     c_bands:  3 eigenvalues not converged
     c_bands:  3 eigenvalues not converged
     c_bands:  3 eigenvalues not converged
     c_bands:  2 eigenvalues not converged
     c_bands:  2 eigenvalues not converged
     c_bands:  3 eigenvalues not converged
     c_bands:  4 eigenvalues not converged
     c_bands:  3 eigenvalues not converged
     c_bands:  2 eigenvalues not converged
     c_bands:  3 eigenvalues not converged
     c_bands:  3 eigenvalues not converged
     c_bands:  4 eigenvalues not converged
     c_bands:  3 eigenvalues not converged
     c_bands:  3 eigenvalues not converged
     c_bands:  3 eigenvalues not converged
     c_bands:  2 eigenvalues not converged
     c_bands:  3 eigenvalues not converged
     c_bands:  3 eigenvalues not converged
     c_bands:  3 eigenvalues not converged
     c_bands:  3 eigenvalues not converged
     c_bands:  4 eigenvalues not converged
     c_bands:  3 eigenvalues not converged
     c_bands:  4 eigenvalues not converged
     c_bands:  3 eigenvalues not converged
     c_bands:  3 eigenvalues not converged
     c_bands:  3 eigenvalues not converged
     c_bands:  3 eigenvalues not converged
     c_bands:  3 eigenvalues not converged
     c_bands:  3 eigenvalues not converged
     c_bands:  3 eigenvalues not converged
     c_bands:  3 eigenvalues not converged
     c_bands:  3 eigenvalues not converged
     c_bands:  4 eigenvalues not converged
     c_bands:  3 eigenvalues not converged
     c_bands:  3 eigenvalues not converged
     c_bands:  3 eigenvalues not converged
     c_bands:  3 eigenvalues not converged
     c_bands:  3 eigenvalues not converged
     c_bands:  3 eigenvalues not converged
     c_bands:  3 eigenvalues not converged
     c_bands:  3 eigenvalues not converged
     c_bands:  3 eigenvalues not converged
     c_bands:  3 eigenvalues not converged
     c_bands:  3 eigenvalues not converged
     c_bands:  4 eigenvalues not converged
     c_bands:  3 eigenvalues not converged
     c_bands:  2 eigenvalues not converged
     c_bands:  2 eigenvalues not converged
     c_bands:  2 eigenvalues not converged
     c_bands:  3 eigenvalues not converged
     c_bands:  3 eigenvalues not converged
     c_bands:  3 eigenvalues not converged
     ethr =  1.00E-06,  avg # of iterations = 20.0

     total cpu time spent up to now is     5420.6 secs

     total energy              =    -151.60966524 Ry
     estimated scf accuracy    <       0.45623813 Ry

     iteration #  2     ecut=    80.00 Ry     beta= 0.40
     Davidson diagonalization with overlap
     ethr =  1.90E-03,  avg # of iterations =  2.0

     total cpu time spent up to now is     5459.5 secs

     total energy              =    -151.73266235 Ry
     estimated scf accuracy    <       0.05221589 Ry

     iteration #  3     ecut=    80.00 Ry     beta= 0.40
     Davidson diagonalization with overlap
     ethr =  2.18E-04,  avg # of iterations =  2.3

     total cpu time spent up to now is     5496.0 secs

     total energy              =    -151.73625985 Ry
     estimated scf accuracy    <       0.00707318 Ry

     iteration #  4     ecut=    80.00 Ry     beta= 0.40
     Davidson diagonalization with overlap
     c_bands:  1 eigenvalues not converged
     ethr =  2.95E-05,  avg # of iterations =  5.7

     total cpu time spent up to now is     5544.6 secs

     total energy              =    -151.73805796 Ry
     estimated scf accuracy    <       0.00158839 Ry

     iteration #  5     ecut=    80.00 Ry     beta= 0.40
     Davidson diagonalization with overlap
     ethr =  6.62E-06,  avg # of iterations =  5.1

     total cpu time spent up to now is     5592.6 secs

     total energy              =    -151.73863239 Ry
     estimated scf accuracy    <       0.00129619 Ry

     iteration #  6     ecut=    80.00 Ry     beta= 0.40
     Davidson diagonalization with overlap
     ethr =  5.40E-06,  avg # of iterations =  2.0

     total cpu time spent up to now is     5632.9 secs

     total energy              =    -151.73877442 Ry
     estimated scf accuracy    <       0.00010089 Ry

     iteration #  7     ecut=    80.00 Ry     beta= 0.40
     Davidson diagonalization with overlap
     c_bands:  1 eigenvalues not converged
     ethr =  4.20E-07,  avg # of iterations =  4.7

     total cpu time spent up to now is     5686.0 secs

     total energy              =    -151.73882216 Ry
     estimated scf accuracy    <       0.00001612 Ry

     iteration #  8     ecut=    80.00 Ry     beta= 0.40
     Davidson diagonalization with overlap
     c_bands:  1 eigenvalues not converged
     c_bands:  1 eigenvalues not converged
     ethr =  6.71E-08,  avg # of iterations =  3.6

     total cpu time spent up to now is     5731.5 secs

     total energy              =    -151.73881413 Ry
     estimated scf accuracy    <       0.00004778 Ry

     iteration #  9     ecut=    80.00 Ry     beta= 0.40
     Davidson diagonalization with overlap
     ethr =  6.71E-08,  avg # of iterations =  2.0

     total cpu time spent up to now is     5772.7 secs

     total energy              =    -151.73881054 Ry
     estimated scf accuracy    <       0.00001070 Ry

     iteration # 10     ecut=    80.00 Ry     beta= 0.40
     Davidson diagonalization with overlap
     ethr =  4.46E-08,  avg # of iterations =  2.9

     total cpu time spent up to now is     5813.3 secs

     total energy              =    -151.73881421 Ry
     estimated scf accuracy    <       0.00000161 Ry

     iteration # 11     ecut=    80.00 Ry     beta= 0.40
     Davidson diagonalization with overlap
     ethr =  6.70E-09,  avg # of iterations =  2.4

     total cpu time spent up to now is     5851.7 secs

     total energy              =    -151.73881463 Ry
     estimated scf accuracy    <       0.00000025 Ry

     iteration # 12     ecut=    80.00 Ry     beta= 0.40
     Davidson diagonalization with overlap
     ethr =  1.02E-09,  avg # of iterations =  3.9

     total cpu time spent up to now is     5899.9 secs

     total energy              =    -151.73881468 Ry
     estimated scf accuracy    <       0.00000006 Ry

     iteration # 13     ecut=    80.00 Ry     beta= 0.40
     Davidson diagonalization with overlap
     ethr =  2.32E-10,  avg # of iterations =  3.7

     total cpu time spent up to now is     5940.0 secs

     total energy              =    -151.73881468 Ry
     estimated scf accuracy    <       0.00000006 Ry

     iteration # 14     ecut=    80.00 Ry     beta= 0.40
     Davidson diagonalization with overlap
     ethr =  2.32E-10,  avg # of iterations =  1.7

     total cpu time spent up to now is     5973.1 secs

     total energy              =    -151.73881468 Ry
     estimated scf accuracy    <       0.00000001 Ry

     iteration # 15     ecut=    80.00 Ry     beta= 0.40
     Davidson diagonalization with overlap
     ethr =  4.62E-11,  avg # of iterations =  4.0

     total cpu time spent up to now is     6013.5 secs

     total energy              =    -151.73881468 Ry
     estimated scf accuracy    <       0.00000009 Ry

     iteration # 16     ecut=    80.00 Ry     beta= 0.40
     Davidson diagonalization with overlap
     ethr =  4.62E-11,  avg # of iterations =  3.7

     total cpu time spent up to now is     6050.8 secs

     total energy              =    -151.73881468 Ry
     estimated scf accuracy    <       0.00000001 Ry

     iteration # 17     ecut=    80.00 Ry     beta= 0.40
     Davidson diagonalization with overlap
     ethr =  4.62E-11,  avg # of iterations =  1.1

     total cpu time spent up to now is     6082.5 secs

     total energy              =    -151.73881468 Ry
     estimated scf accuracy    <          6.3E-09 Ry

     iteration # 18     ecut=    80.00 Ry     beta= 0.40
     Davidson diagonalization with overlap
     ethr =  2.62E-11,  avg # of iterations =  2.1

     total cpu time spent up to now is     6117.0 secs

     total energy              =    -151.73881468 Ry
     estimated scf accuracy    <          9.0E-10 Ry

     iteration # 19     ecut=    80.00 Ry     beta= 0.40
     Davidson diagonalization with overlap
     ethr =  3.75E-12,  avg # of iterations =  3.0

     total cpu time spent up to now is     6153.4 secs

     total energy              =    -151.73881468 Ry
     estimated scf accuracy    <          1.4E-09 Ry

     iteration # 20     ecut=    80.00 Ry     beta= 0.40
     Davidson diagonalization with overlap
     ethr =  3.75E-12,  avg # of iterations =  1.6

     total cpu time spent up to now is     6185.9 secs

     total energy              =    -151.73881468 Ry
     estimated scf accuracy    <          1.0E-09 Ry

     iteration # 21     ecut=    80.00 Ry     beta= 0.40
     Davidson diagonalization with overlap
     ethr =  3.75E-12,  avg # of iterations =  3.5

     total cpu time spent up to now is     6223.7 secs

     total energy              =    -151.73881468 Ry
     estimated scf accuracy    <          1.2E-09 Ry

     iteration # 22     ecut=    80.00 Ry     beta= 0.40
     Davidson diagonalization with overlap
     ethr =  3.75E-12,  avg # of iterations =  1.2

     total cpu time spent up to now is     6264.3 secs

     total energy              =    -151.73881468 Ry
     estimated scf accuracy    <          3.7E-10 Ry

     iteration # 23     ecut=    80.00 Ry     beta= 0.40
     Davidson diagonalization with overlap
     ethr =  1.56E-12,  avg # of iterations =  2.3

     total cpu time spent up to now is     6299.1 secs

     total energy              =    -151.73881468 Ry
     estimated scf accuracy    <          6.1E-11 Ry

     iteration # 24     ecut=    80.00 Ry     beta= 0.40
     Davidson diagonalization with overlap
     ethr =  2.53E-13,  avg # of iterations =  2.1

     total cpu time spent up to now is     6332.8 secs

     total energy              =    -151.73881468 Ry
     estimated scf accuracy    <          3.4E-12 Ry

     iteration # 25     ecut=    80.00 Ry     beta= 0.40
     Davidson diagonalization with overlap
     ethr =  1.00E-13,  avg # of iterations =  1.7

     total cpu time spent up to now is     6365.8 secs

     total energy              =    -151.73881468 Ry
     estimated scf accuracy    <          1.4E-12 Ry

     iteration # 26     ecut=    80.00 Ry     beta= 0.40
     Davidson diagonalization with overlap
     ethr =  1.00E-13,  avg # of iterations =  1.0

     total cpu time spent up to now is     6396.2 secs

     End of self-consistent calculation

     Number of k-points >= 100: set verbosity='high' to print the bands.

     the Fermi energy is    11.4000 ev

!    total energy              =    -151.73881468 Ry
     estimated scf accuracy    <          2.8E-13 Ry
     smearing contrib. (-TS)   =      -0.00050257 Ry
     internal energy E=F+TS    =    -151.73831212 Ry

     The total energy is F=E-TS. E is the sum of the following terms:
     one-electron contribution =      -2.53449236 Ry
     hartree contribution      =      18.35163870 Ry
     xc contribution           =     -54.52273381 Ry
     ewald contribution        =    -113.03272465 Ry

     convergence has been achieved in  26 iterations

     Forces acting on atoms (cartesian axes, Ry/au):

     atom    1 type  1   force =    -0.00000225   -0.00000300   -0.00000025
     atom    2 type  2   force =     0.00000087    0.00000100    0.00000001
     atom    3 type  3   force =     0.00000021    0.00000077    0.00000007
     atom    4 type  3   force =     0.00000059    0.00000045    0.00000007
     atom    5 type  3   force =     0.00000059    0.00000077    0.00000011

     Total force =     0.000004     Total SCF correction =     0.000000


     Computing stress (Cartesian axis) and pressure

          total   stress  (Ry/bohr**3)                   (kbar)     P=       50.05
   0.00034020   0.00000000  -0.00000000           50.05        0.00       -0.00
   0.00000000   0.00034020  -0.00000000            0.00       50.05       -0.00
  -0.00000000  -0.00000000   0.00034020           -0.00       -0.00       50.05


     Writing output data file ./out/baauh3.save/

     init_run     :     30.61s CPU     32.11s WALL (       2 calls)
     electrons    :   5959.31s CPU   6264.66s WALL (       5 calls)
     update_pot   :      9.49s CPU      9.52s WALL (       3 calls)
     forces       :     37.10s CPU     37.78s WALL (       5 calls)
     stress       :     69.61s CPU     71.25s WALL (       5 calls)

     Called by init_run:
     wfcinit      :     24.89s CPU     26.29s WALL (       2 calls)
     potinit      :      1.68s CPU      1.69s WALL (       2 calls)
     hinit0       :      3.71s CPU      3.73s WALL (       2 calls)

     Called by electrons:
     c_bands      :   5274.82s CPU   5508.61s WALL (     150 calls)
     sum_band     :    668.20s CPU    728.06s WALL (     150 calls)
     v_of_rho     :      3.14s CPU      3.62s WALL (     155 calls)
     newd         :     12.78s CPU     24.23s WALL (     155 calls)
     mix_rho      :      0.52s CPU      0.57s WALL (     150 calls)

     Called by c_bands:
     init_us_2    :    110.88s CPU    111.81s WALL (  270816 calls)
     cegterg      :   4929.91s CPU   5162.17s WALL (  130202 calls)

     Called by *egterg:
     cdiaghg      :    122.29s CPU    123.80s WALL (  489375 calls)
     h_psi        :   2910.30s CPU   3131.27s WALL (  493717 calls)
     s_psi        :    489.48s CPU    491.72s WALL (  493717 calls)
     g_psi        :     21.73s CPU     21.81s WALL (  361779 calls)

     Called by h_psi:
     h_psi:calbec :    451.86s CPU    474.45s WALL (  493717 calls)
     vloc_psi     :   1955.86s CPU   2151.05s WALL (  493717 calls)
     add_vuspsi   :    490.89s CPU    494.07s WALL (  493717 calls)

     General routines
     calbec       :    664.89s CPU    695.18s WALL (  645617 calls)
     fft          :      1.98s CPU      2.26s WALL (    2133 calls)
     ffts         :      0.10s CPU      0.11s WALL (     305 calls)
     fftw         :   2063.80s CPU   2270.10s WALL (12508852 calls)
     interpolate  :      0.18s CPU      0.21s WALL (     155 calls)

     Parallel routines
     fft_scatt_xy :    246.62s CPU    272.62s WALL (12511290 calls)
     fft_scatt_yz :    581.45s CPU    647.81s WALL (12511290 calls)

     PWSCF        :      1h41m CPU      1h46m WALL


   This run was terminated on:  15: 7:28  31May2026            

=------------------------------------------------------------------------------=
   JOB DONE.
=------------------------------------------------------------------------------=
