
     Program PWSCF v.6.7MaX starts on 31May2026 at  6: 0: 7 

     This program is part of the open-source Quantum ESPRESSO suite
     for quantum simulation of materials; please cite
         "P. Giannozzi et al., J. Phys.:Condens. Matter 21 395502 (2009);
         "P. Giannozzi et al., J. Phys.:Condens. Matter 29 465901 (2017);
          URL http://www.quantum-espresso.org", 
     in publications or presentations arising from this work. More details at
     http://www.quantum-espresso.org/quote

     Parallel version (MPI), running on     9 processors

     MPI processes distributed on     1 nodes
     R & G space division:  proc/nbgrp/npool/nimage =       9
     Reading input from vc-relax.in

     Current dimensions of program PWSCF are:
     Max number of different atomic species (ntypx) = 10
     Max number of k-points (npk) =  40000
     Max angular momentum in pseudopotentials (lmaxx) =  3
     file Y.pbe-spn-rrkjus_psl.1.0.0.UPF: wavefunction(s)  4S renormalized

     Subspace diagonalization in iterative solution of the eigenvalue problem:
     a serial algorithm will be used


     Parallelization info
     --------------------
     sticks:   dense  smooth     PW     G-vecs:    dense   smooth      PW
     Min         272     108     34                 8926     2252     391
     Max         273     110     36                 8929     2253     392
     Sum        2455     979    313                80347    20275    3527



     bravais-lattice index     =            2
     lattice parameter (alat)  =       9.4500  a.u.
     unit-cell volume          =     210.9772 (a.u.)^3
     number of atoms/cell      =           10
     number of atomic types    =            3
     number of electrons       =        21.00
     number of Kohn-Sham states=           15
     kinetic-energy cutoff     =      80.0000  Ry
     charge density cutoff     =     800.0000  Ry
     scf convergence threshold =      1.0E-10
     mixing beta               =       0.3000
     number of iterations used =            8  plain     mixing
     energy convergence thresh.=      1.0E-06
     force convergence thresh. =      1.0E-04
     press convergence thresh. =      5.0E-01
     Exchange-correlation= PBE
                           (   1   4   3   4   0   0   0)
     nstep                     =          200


     celldm(1)=   9.450000  celldm(2)=   0.000000  celldm(3)=   0.000000
     celldm(4)=   0.000000  celldm(5)=   0.000000  celldm(6)=   0.000000

     crystal axes: (cart. coord. in units of alat)
               a(1) = (  -0.500000   0.000000   0.500000 )  
               a(2) = (   0.000000   0.500000   0.500000 )  
               a(3) = (  -0.500000   0.500000   0.000000 )  

     reciprocal axes: (cart. coord. in units 2 pi/alat)
               b(1) = ( -1.000000 -1.000000  1.000000 )  
               b(2) = (  1.000000  1.000000  1.000000 )  
               b(3) = ( -1.000000  1.000000 -1.000000 )  


     PseudoPot. # 1 for Y  read from file:
     ./pseudo/Y.pbe-spn-rrkjus_psl.1.0.0.UPF
     MD5 check sum: 5fe32e6a006803c2ec2edff47948a3c8
     Pseudo is Ultrasoft + core correction, Zval = 11.0
     Generated using &quot;atomic&quot; code by A. Dal Corso  v.6.2.2
     Using radial grid of 1223 points,  6 beta functions with: 
                l(1) =   0
                l(2) =   0
                l(3) =   1
                l(4) =   1
                l(5) =   2
                l(6) =   2
     Q(r) pseudized with 0 coefficients 


     PseudoPot. # 2 for Be read from file:
     ./pseudo/Be.pbe-n-rrkjus_psl.1.0.0.UPF
     MD5 check sum: 4cdd19bfc6f73cbf9d5a541ec8c1e79e
     Pseudo is Ultrasoft + core correction, Zval =  2.0
     Generated using &quot;atomic&quot; code by A. Dal Corso  v.6.3MaX
     Using radial grid of 1041 points,  4 beta functions with: 
                l(1) =   0
                l(2) =   0
                l(3) =   1
                l(4) =   1
     Q(r) pseudized with 0 coefficients 


     PseudoPot. # 3 for H  read from file:
     ./pseudo/H.pbe-rrkjus_psl.1.0.0.UPF
     MD5 check sum: 3f4114867bd07edc7f1424d066fc1888
     Pseudo is Ultrasoft, Zval =  1.0
     Generated using &quot;atomic&quot; code by A. Dal Corso  v.6.3MaX
     Using radial grid of  929 points,  2 beta functions with: 
                l(1) =   0
                l(2) =   0
     Q(r) pseudized with 0 coefficients 


     atomic species   valence    mass     pseudopotential
        Y             11.00    88.90590     Y ( 1.00)
        Be             2.00     9.01220     Be( 1.00)
        H              1.00     1.00800     H ( 1.00)

     No symmetry found



   Cartesian axes

     site n.     atom                  positions (alat units)
         1           Y   tau(   1) = (   0.0000000   0.0000000   0.0000000  )
         2           Be  tau(   2) = (  -0.5000000   0.5000000   0.5000000  )
         3           H   tau(   3) = (  -0.1200000   0.1200000   0.1200000  )
         4           H   tau(   4) = (   0.1200000  -0.1200000  -0.1200000  )
         5           H   tau(   5) = (  -0.5000000   0.5000000   0.6200000  )
         6           H   tau(   6) = (  -0.5000000   0.5000000   0.3800000  )
         7           H   tau(   7) = (  -0.6200000   0.5000000   0.5000000  )
         8           H   tau(   8) = (  -0.3800000   0.5000000   0.5000000  )
         9           H   tau(   9) = (  -0.5000000   0.6200000   0.5000000  )
        10           H   tau(  10) = (  -0.5000000   0.3800000   0.5000000  )

     number of k points=   868  Methfessel-Paxton smearing, width (Ry)=  0.0100

     Number of k-points >= 100: set verbosity='high' to print them.

     Dense  grid:    80347 G-vectors     FFT dimensions: (  64,  64,  64)

     Smooth grid:    20275 G-vectors     FFT dimensions: (  40,  40,  40)

     Estimated max dynamical RAM per process >     104.97 MB

     Estimated total dynamical RAM >     944.73 MB

     Initial potential from superposition of free atoms

     starting charge   20.99568, renormalised to   21.00000
     Starting wfcs are   25 randomized atomic wfcs

     total cpu time spent up to now is        8.2 secs

     Self-consistent Calculation

     iteration #  1     ecut=    80.00 Ry     beta= 0.30
     Davidson diagonalization with overlap
     ethr =  1.00E-02,  avg # of iterations =  5.3

     total cpu time spent up to now is       29.9 secs

     total energy              =     -87.52301973 Ry
     estimated scf accuracy    <       4.79800011 Ry

     iteration #  2     ecut=    80.00 Ry     beta= 0.30
     Davidson diagonalization with overlap
     ethr =  1.00E-02,  avg # of iterations =  2.0

     total cpu time spent up to now is       41.2 secs

     total energy              =     -87.19313777 Ry
     estimated scf accuracy    <       1.07075566 Ry

     iteration #  3     ecut=    80.00 Ry     beta= 0.30
     Davidson diagonalization with overlap
     ethr =  5.10E-03,  avg # of iterations =  4.0

     total cpu time spent up to now is       55.5 secs

     total energy              =     -87.52372424 Ry
     estimated scf accuracy    <       0.07747638 Ry

     iteration #  4     ecut=    80.00 Ry     beta= 0.30
     Davidson diagonalization with overlap
     ethr =  3.69E-04,  avg # of iterations =  3.7

     total cpu time spent up to now is       69.2 secs

     total energy              =     -87.54301387 Ry
     estimated scf accuracy    <       0.01311289 Ry

     iteration #  5     ecut=    80.00 Ry     beta= 0.30
     Davidson diagonalization with overlap
     ethr =  6.24E-05,  avg # of iterations =  2.7

     total cpu time spent up to now is       81.8 secs

     total energy              =     -87.54402218 Ry
     estimated scf accuracy    <       0.00184364 Ry

     iteration #  6     ecut=    80.00 Ry     beta= 0.30
     Davidson diagonalization with overlap
     ethr =  8.78E-06,  avg # of iterations =  4.2

     total cpu time spent up to now is       97.0 secs

     total energy              =     -87.54432573 Ry
     estimated scf accuracy    <       0.00116177 Ry

     iteration #  7     ecut=    80.00 Ry     beta= 0.30
     Davidson diagonalization with overlap
     ethr =  5.53E-06,  avg # of iterations =  2.1

     total cpu time spent up to now is      108.8 secs

     total energy              =     -87.54458039 Ry
     estimated scf accuracy    <       0.00000554 Ry

     iteration #  8     ecut=    80.00 Ry     beta= 0.30
     Davidson diagonalization with overlap
     ethr =  2.64E-08,  avg # of iterations =  5.3

     total cpu time spent up to now is      128.3 secs

     total energy              =     -87.54460420 Ry
     estimated scf accuracy    <       0.00000549 Ry

     iteration #  9     ecut=    80.00 Ry     beta= 0.30
     Davidson diagonalization with overlap
     ethr =  2.61E-08,  avg # of iterations =  1.1

     total cpu time spent up to now is      138.8 secs

     total energy              =     -87.54460449 Ry
     estimated scf accuracy    <       0.00000079 Ry

     iteration # 10     ecut=    80.00 Ry     beta= 0.30
     Davidson diagonalization with overlap
     ethr =  3.75E-09,  avg # of iterations =  3.6

     total cpu time spent up to now is      151.8 secs

     total energy              =     -87.54460433 Ry
     estimated scf accuracy    <       0.00000043 Ry

     iteration # 11     ecut=    80.00 Ry     beta= 0.30
     Davidson diagonalization with overlap
     ethr =  2.06E-09,  avg # of iterations =  2.9

     total cpu time spent up to now is      165.2 secs

     total energy              =     -87.54460449 Ry
     estimated scf accuracy    <       0.00000003 Ry

     iteration # 12     ecut=    80.00 Ry     beta= 0.30
     Davidson diagonalization with overlap
     ethr =  1.30E-10,  avg # of iterations =  3.7

     total cpu time spent up to now is      179.0 secs

     total energy              =     -87.54460449 Ry
     estimated scf accuracy    <       0.00000001 Ry

     iteration # 13     ecut=    80.00 Ry     beta= 0.30
     Davidson diagonalization with overlap
     ethr =  6.49E-11,  avg # of iterations =  3.8

     total cpu time spent up to now is      193.5 secs

     total energy              =     -87.54460449 Ry
     estimated scf accuracy    <          4.3E-09 Ry

     iteration # 14     ecut=    80.00 Ry     beta= 0.30
     Davidson diagonalization with overlap
     ethr =  2.06E-11,  avg # of iterations =  1.2

     total cpu time spent up to now is      204.1 secs

     total energy              =     -87.54460449 Ry
     estimated scf accuracy    <          9.0E-10 Ry

     iteration # 15     ecut=    80.00 Ry     beta= 0.30
     Davidson diagonalization with overlap
     ethr =  4.27E-12,  avg # of iterations =  3.8

     total cpu time spent up to now is      218.0 secs

     total energy              =     -87.54460449 Ry
     estimated scf accuracy    <          6.2E-10 Ry

     iteration # 16     ecut=    80.00 Ry     beta= 0.30
     Davidson diagonalization with overlap
     ethr =  2.97E-12,  avg # of iterations =  2.0

     total cpu time spent up to now is      229.4 secs

     End of self-consistent calculation

     Number of k-points >= 100: set verbosity='high' to print the bands.

     the Fermi energy is    17.1042 ev

!    total energy              =     -87.54460449 Ry
     estimated scf accuracy    <          8.1E-12 Ry
     smearing contrib. (-TS)   =       0.00009152 Ry
     internal energy E=F+TS    =     -87.54469601 Ry

     The total energy is F=E-TS. E is the sum of the following terms:
     one-electron contribution =      -5.36105701 Ry
     hartree contribution      =      15.75402596 Ry
     xc contribution           =     -28.96233719 Ry
     ewald contribution        =     -68.97532777 Ry

     convergence has been achieved in  16 iterations

     Forces acting on atoms (cartesian axes, Ry/au):

     atom    1 type  1   force =    -0.00000000   -0.00000000   -0.00000000
     atom    2 type  2   force =    -0.00000000   -0.00000000    0.00000001
     atom    3 type  3   force =    -0.75904884    0.75904884    0.75904884
     atom    4 type  3   force =     0.75904884   -0.75904884   -0.75904884
     atom    5 type  3   force =     0.00225445   -0.00225445    2.47825888
     atom    6 type  3   force =    -0.00225445    0.00225446   -2.47825888
     atom    7 type  3   force =    -2.47825888   -0.00225446   -0.00225445
     atom    8 type  3   force =     2.47825888    0.00225446    0.00225445
     atom    9 type  3   force =     0.00225446    2.47825888   -0.00225445
     atom   10 type  3   force =    -0.00225446   -2.47825888    0.00225445

     Total force =     6.348826     Total SCF correction =     0.000003


     Computing stress (Cartesian axis) and pressure

          total   stress  (Ry/bohr**3)                   (kbar)     P=     5844.09
   0.03972732  -0.00772417  -0.00772417         5844.09    -1136.26    -1136.26
  -0.00772417   0.03972732   0.00772417        -1136.26     5844.09     1136.26
  -0.00772417   0.00772417   0.03972732        -1136.26     1136.26     5844.09


     BFGS Geometry Optimization
     Energy error            =      0.0E+00
     Gradient error          =      2.5E+00
     Cell gradient error     =      3.6E-02


     number of scf cycles    =   1
     number of bfgs steps    =   0

     enthalpy new            =     -86.8275077121 Ry

     new trust radius        =       0.5000000000 bohr
     new conv_thr            =            1.0E-10 Ry

     new unit-cell volume =    332.55358 a.u.^3 (    49.27936 Ang^3 )
     density =      3.57122 g/cm^3

CELL_PARAMETERS (alat=  9.45000000)
  -0.599935856   0.035045465   0.599935856
  -0.035045465   0.599935856   0.599935856
  -0.599935856   0.599935856   0.035045465

ATOMIC_POSITIONS (crystal)
Y             0.0000000000       -0.0000000001        0.0000000000
Be            0.5000000002        0.5000000001        0.4999999999
H             0.1345773327        0.1345773328        0.1345773327
H            -0.1345773328       -0.1345773328       -0.1345773327
H             0.6675943081        0.6675943080        0.3323190996
H             0.3324056918        0.3324056920        0.6676809004
H             0.6675943081        0.3323190995        0.6675943079
H             0.3324056918        0.6676809004        0.3324056922
H             0.3323190995        0.6675943081        0.6675943079
H             0.6676809005        0.3324056919        0.3324056921



     Writing output data file ./out/ybeh8.save/
     NEW-OLD atomic charge density approx. for the potential
     extrapolated charge   28.67570, renormalised to   21.00000

     total cpu time spent up to now is      236.7 secs

     Self-consistent Calculation

     iteration #  1     ecut=    80.00 Ry     beta= 0.30
     Davidson diagonalization with overlap
     c_bands:  2 eigenvalues not converged
     c_bands:  1 eigenvalues not converged
     c_bands:  1 eigenvalues not converged
     c_bands:  2 eigenvalues not converged
     c_bands:  1 eigenvalues not converged
     c_bands:  1 eigenvalues not converged
     c_bands:  1 eigenvalues not converged
     c_bands:  1 eigenvalues not converged
     c_bands:  1 eigenvalues not converged
     c_bands:  1 eigenvalues not converged
     c_bands:  1 eigenvalues not converged
     c_bands:  1 eigenvalues not converged
     c_bands:  1 eigenvalues not converged
     c_bands:  1 eigenvalues not converged
     c_bands:  1 eigenvalues not converged
     c_bands:  1 eigenvalues not converged
     c_bands:  1 eigenvalues not converged
     c_bands:  1 eigenvalues not converged
     c_bands:  1 eigenvalues not converged
     c_bands:  1 eigenvalues not converged
     c_bands:  1 eigenvalues not converged
     c_bands:  1 eigenvalues not converged
     c_bands:  1 eigenvalues not converged
     c_bands:  1 eigenvalues not converged
     c_bands:  1 eigenvalues not converged
     c_bands:  1 eigenvalues not converged
     c_bands:  1 eigenvalues not converged
     c_bands:  1 eigenvalues not converged
     c_bands:  1 eigenvalues not converged
     c_bands:  1 eigenvalues not converged
     c_bands:  1 eigenvalues not converged
     c_bands:  1 eigenvalues not converged
     c_bands:  1 eigenvalues not converged
     c_bands:  1 eigenvalues not converged
     c_bands:  1 eigenvalues not converged
     c_bands:  1 eigenvalues not converged
     c_bands:  1 eigenvalues not converged
     c_bands:  1 eigenvalues not converged
     c_bands:  1 eigenvalues not converged
     c_bands:  1 eigenvalues not converged
     c_bands:  1 eigenvalues not converged
     c_bands:  1 eigenvalues not converged
     c_bands:  1 eigenvalues not converged
     c_bands:  1 eigenvalues not converged
     c_bands:  1 eigenvalues not converged
     c_bands:  1 eigenvalues not converged
     c_bands:  1 eigenvalues not converged
     c_bands:  1 eigenvalues not converged
     c_bands:  1 eigenvalues not converged
     c_bands:  1 eigenvalues not converged
     c_bands:  1 eigenvalues not converged
     c_bands:  1 eigenvalues not converged
     c_bands:  1 eigenvalues not converged
     c_bands:  1 eigenvalues not converged
     c_bands:  1 eigenvalues not converged
     c_bands:  1 eigenvalues not converged
     c_bands:  1 eigenvalues not converged
     c_bands:  1 eigenvalues not converged
     c_bands:  1 eigenvalues not converged
     c_bands:  1 eigenvalues not converged
     c_bands:  1 eigenvalues not converged
     c_bands:  1 eigenvalues not converged
     c_bands:  1 eigenvalues not converged
     c_bands:  1 eigenvalues not converged
     c_bands:  1 eigenvalues not converged
     c_bands:  1 eigenvalues not converged
     c_bands:  1 eigenvalues not converged
     c_bands:  1 eigenvalues not converged
     c_bands:  1 eigenvalues not converged
     c_bands:  1 eigenvalues not converged
     c_bands:  1 eigenvalues not converged
     c_bands:  1 eigenvalues not converged
     c_bands:  1 eigenvalues not converged
     c_bands:  1 eigenvalues not converged
     c_bands:  1 eigenvalues not converged
     c_bands:  1 eigenvalues not converged
     c_bands:  1 eigenvalues not converged
     c_bands:  1 eigenvalues not converged
     c_bands:  1 eigenvalues not converged
     c_bands:  1 eigenvalues not converged
     c_bands:  1 eigenvalues not converged
     c_bands:  1 eigenvalues not converged
     c_bands:  1 eigenvalues not converged
     c_bands:  1 eigenvalues not converged
     c_bands:  1 eigenvalues not converged
     c_bands:  1 eigenvalues not converged
     c_bands:  1 eigenvalues not converged
     c_bands:  1 eigenvalues not converged
     c_bands:  1 eigenvalues not converged
     c_bands:  1 eigenvalues not converged
     c_bands:  1 eigenvalues not converged
     c_bands:  1 eigenvalues not converged
     c_bands:  1 eigenvalues not converged
     c_bands:  1 eigenvalues not converged
     c_bands:  1 eigenvalues not converged
     c_bands:  1 eigenvalues not converged
     c_bands:  1 eigenvalues not converged
     c_bands:  1 eigenvalues not converged
     c_bands:  1 eigenvalues not converged
     c_bands:  1 eigenvalues not converged
     c_bands:  1 eigenvalues not converged
     c_bands:  1 eigenvalues not converged
     c_bands:  1 eigenvalues not converged
     c_bands:  1 eigenvalues not converged
     c_bands:  1 eigenvalues not converged
     c_bands:  1 eigenvalues not converged
     c_bands:  1 eigenvalues not converged
     c_bands:  1 eigenvalues not converged
     c_bands:  1 eigenvalues not converged
     c_bands:  1 eigenvalues not converged
     c_bands:  1 eigenvalues not converged
     c_bands:  1 eigenvalues not converged
     c_bands:  1 eigenvalues not converged
     c_bands:  1 eigenvalues not converged
     c_bands:  1 eigenvalues not converged
     c_bands:  1 eigenvalues not converged
     c_bands:  1 eigenvalues not converged
     c_bands:  1 eigenvalues not converged
     c_bands:  2 eigenvalues not converged
     c_bands:  1 eigenvalues not converged
     c_bands:  1 eigenvalues not converged
     c_bands:  1 eigenvalues not converged
     c_bands:  1 eigenvalues not converged
     c_bands:  1 eigenvalues not converged
     c_bands:  1 eigenvalues not converged
     c_bands:  1 eigenvalues not converged
     c_bands:  1 eigenvalues not converged
     c_bands:  1 eigenvalues not converged
     c_bands:  1 eigenvalues not converged
     c_bands:  1 eigenvalues not converged
     c_bands:  1 eigenvalues not converged
     c_bands:  1 eigenvalues not converged
     c_bands:  1 eigenvalues not converged
     c_bands:  1 eigenvalues not converged
     c_bands:  1 eigenvalues not converged
     c_bands:  1 eigenvalues not converged
     c_bands:  1 eigenvalues not converged
     c_bands:  1 eigenvalues not converged
     c_bands:  1 eigenvalues not converged
     c_bands:  1 eigenvalues not converged
     c_bands:  1 eigenvalues not converged
     c_bands:  1 eigenvalues not converged
     c_bands:  1 eigenvalues not converged
     c_bands:  1 eigenvalues not converged
     c_bands:  1 eigenvalues not converged
     c_bands:  1 eigenvalues not converged
     c_bands:  1 eigenvalues not converged
     c_bands:  1 eigenvalues not converged
     c_bands:  1 eigenvalues not converged
     c_bands:  2 eigenvalues not converged
     ethr =  1.00E-06,  avg # of iterations = 16.3

     total cpu time spent up to now is      294.4 secs

     total energy              =     -91.59969713 Ry
     estimated scf accuracy    <       1.54138754 Ry

     iteration #  2     ecut=    80.00 Ry     beta= 0.30
     Davidson diagonalization with overlap
     ethr =  7.34E-03,  avg # of iterations =  4.2

     total cpu time spent up to now is      313.2 secs

     total energy              =     -93.93653372 Ry
     estimated scf accuracy    <       0.98561302 Ry

     iteration #  3     ecut=    80.00 Ry     beta= 0.30
     Davidson diagonalization with overlap
     ethr =  4.69E-03,  avg # of iterations =  1.1

     total cpu time spent up to now is      323.3 secs

     total energy              =     -93.72903511 Ry
     estimated scf accuracy    <       0.51850725 Ry

     iteration #  4     ecut=    80.00 Ry     beta= 0.30
     Davidson diagonalization with overlap
     ethr =  2.47E-03,  avg # of iterations =  2.0

     total cpu time spent up to now is      334.9 secs

     total energy              =     -93.77893297 Ry
     estimated scf accuracy    <       0.04932168 Ry

     iteration #  5     ecut=    80.00 Ry     beta= 0.30
     Davidson diagonalization with overlap
     ethr =  2.35E-04,  avg # of iterations =  4.8

     total cpu time spent up to now is      351.5 secs

     total energy              =     -93.79567156 Ry
     estimated scf accuracy    <       0.00591101 Ry

     iteration #  6     ecut=    80.00 Ry     beta= 0.30
     Davidson diagonalization with overlap
     ethr =  2.81E-05,  avg # of iterations =  5.7

     total cpu time spent up to now is      367.1 secs

     total energy              =     -93.79738860 Ry
     estimated scf accuracy    <       0.00019725 Ry

     iteration #  7     ecut=    80.00 Ry     beta= 0.30
     Davidson diagonalization with overlap
     c_bands:  1 eigenvalues not converged
     c_bands:  1 eigenvalues not converged
     ethr =  9.39E-07,  avg # of iterations =  6.5

     total cpu time spent up to now is      384.8 secs

     total energy              =     -93.79745056 Ry
     estimated scf accuracy    <       0.00007721 Ry

     iteration #  8     ecut=    80.00 Ry     beta= 0.30
     Davidson diagonalization with overlap
     ethr =  3.68E-07,  avg # of iterations =  2.1

     total cpu time spent up to now is      397.3 secs

     total energy              =     -93.79746427 Ry
     estimated scf accuracy    <       0.00000326 Ry

     iteration #  9     ecut=    80.00 Ry     beta= 0.30
     Davidson diagonalization with overlap
     ethr =  1.55E-08,  avg # of iterations =  5.1

     total cpu time spent up to now is      415.3 secs

     total energy              =     -93.79746136 Ry
     estimated scf accuracy    <       0.00001015 Ry

     iteration # 10     ecut=    80.00 Ry     beta= 0.30
     Davidson diagonalization with overlap
     ethr =  1.55E-08,  avg # of iterations =  3.7

     total cpu time spent up to now is      431.8 secs

     total energy              =     -93.79746462 Ry
     estimated scf accuracy    <       0.00000221 Ry

     iteration # 11     ecut=    80.00 Ry     beta= 0.30
     Davidson diagonalization with overlap
     ethr =  1.05E-08,  avg # of iterations =  2.0

     total cpu time spent up to now is      443.8 secs

     total energy              =     -93.79746492 Ry
     estimated scf accuracy    <       0.00000008 Ry

     iteration # 12     ecut=    80.00 Ry     beta= 0.30
     Davidson diagonalization with overlap
     ethr =  3.58E-10,  avg # of iterations =  5.3

     total cpu time spent up to now is      462.8 secs

     total energy              =     -93.79746499 Ry
     estimated scf accuracy    <       0.00000005 Ry

     iteration # 13     ecut=    80.00 Ry     beta= 0.30
     Davidson diagonalization with overlap
     ethr =  2.35E-10,  avg # of iterations =  1.7

     total cpu time spent up to now is      474.4 secs

     total energy              =     -93.79746499 Ry
     estimated scf accuracy    <          3.8E-09 Ry

     iteration # 14     ecut=    80.00 Ry     beta= 0.30
     Davidson diagonalization with overlap
     ethr =  1.80E-11,  avg # of iterations =  4.3

     total cpu time spent up to now is      489.7 secs

     total energy              =     -93.79746500 Ry
     estimated scf accuracy    <          4.4E-10 Ry

     iteration # 15     ecut=    80.00 Ry     beta= 0.30
     Davidson diagonalization with overlap
     ethr =  2.08E-12,  avg # of iterations =  3.0

     total cpu time spent up to now is      502.8 secs

     total energy              =     -93.79746500 Ry
     estimated scf accuracy    <          2.2E-10 Ry

     iteration # 16     ecut=    80.00 Ry     beta= 0.30
     Davidson diagonalization with overlap
     ethr =  1.05E-12,  avg # of iterations =  2.4

     total cpu time spent up to now is      514.9 secs

     End of self-consistent calculation

     Number of k-points >= 100: set verbosity='high' to print the bands.

     the Fermi energy is     9.4570 ev

!    total energy              =     -93.79746500 Ry
     estimated scf accuracy    <          1.1E-11 Ry
     smearing contrib. (-TS)   =      -0.00013116 Ry
     internal energy E=F+TS    =     -93.79733384 Ry

     The total energy is F=E-TS. E is the sum of the following terms:
     one-electron contribution =     -16.10269863 Ry
     hartree contribution      =      16.67442033 Ry
     xc contribution           =     -26.68206379 Ry
     ewald contribution        =     -67.68699175 Ry

     convergence has been achieved in  16 iterations

     Forces acting on atoms (cartesian axes, Ry/au):

     atom    1 type  1   force =     0.00000000    0.00000000    0.00000000
     atom    2 type  2   force =    -0.00000000    0.00000000   -0.00000001
     atom    3 type  3   force =    -0.18667827    0.18667827    0.18667827
     atom    4 type  3   force =     0.18667827   -0.18667827   -0.18667827
     atom    5 type  3   force =    -0.00191114    0.00191114    0.42048358
     atom    6 type  3   force =     0.00191114   -0.00191114   -0.42048357
     atom    7 type  3   force =    -0.42048357    0.00191114    0.00191114
     atom    8 type  3   force =     0.42048357   -0.00191114   -0.00191114
     atom    9 type  3   force =    -0.00191114    0.42048357    0.00191114
     atom   10 type  3   force =     0.00191114   -0.42048357   -0.00191114

     Total force =     1.126932     Total SCF correction =     0.000002


     Computing stress (Cartesian axis) and pressure

          total   stress  (Ry/bohr**3)                   (kbar)     P=     1230.23
   0.00836290  -0.00180425  -0.00180425         1230.23     -265.41     -265.41
  -0.00180425   0.00836290   0.00180425         -265.41     1230.23      265.41
  -0.00180425   0.00180425   0.00836290         -265.41      265.41     1230.23

     Energy error            =      5.8E+00
     Gradient error          =      4.2E-01
     Cell gradient error     =      5.0E-03


     number of scf cycles    =   2
     number of bfgs steps    =   1

     enthalpy old            =     -86.8275077121 Ry
     enthalpy new            =     -92.6671383393 Ry

     CASE: enthalpy_new < enthalpy_old

     new trust radius        =       0.2858303368 bohr
     new conv_thr            =            1.0E-10 Ry

     new unit-cell volume =    348.69592 a.u.^3 (    51.67140 Ang^3 )
     density =      3.40590 g/cm^3

CELL_PARAMETERS (alat=  9.45000000)
  -0.624714464   0.063785458   0.624714467
  -0.063785458   0.624714471   0.624714468
  -0.624714465   0.624714471   0.063785457

ATOMIC_POSITIONS (crystal)
Y            -0.0000000001        0.0000000007       -0.0000000004
Be            0.4999999987        0.4999999992        0.5000000018
H             0.1487182654        0.1487182649        0.1487182656
H            -0.1487182655       -0.1487182651       -0.1487182656
H             0.6789826132        0.6789826139        0.3255364479
H             0.3210173879        0.3210173870        0.6744635513
H             0.6789826128        0.3255364484        0.6789826137
H             0.3210173872        0.6744635514        0.3210173866
H             0.3255364490        0.6789826131        0.6789826124
H             0.6744635514        0.3210173865        0.3210173868



     Writing output data file ./out/ybeh8.save/
     NEW-OLD atomic charge density approx. for the potential
     extrapolated charge   21.97196, renormalised to   21.00000

     total cpu time spent up to now is      522.7 secs

     Self-consistent Calculation

     iteration #  1     ecut=    80.00 Ry     beta= 0.30
     Davidson diagonalization with overlap
     c_bands:  1 eigenvalues not converged
     c_bands:  1 eigenvalues not converged
     c_bands:  1 eigenvalues not converged
     c_bands:  1 eigenvalues not converged
     c_bands:  1 eigenvalues not converged
     c_bands:  1 eigenvalues not converged
     c_bands:  1 eigenvalues not converged
     c_bands:  1 eigenvalues not converged
     c_bands:  1 eigenvalues not converged
     c_bands:  1 eigenvalues not converged
     c_bands:  1 eigenvalues not converged
     c_bands:  1 eigenvalues not converged
     c_bands:  1 eigenvalues not converged
     c_bands:  1 eigenvalues not converged
     c_bands:  1 eigenvalues not converged
     c_bands:  1 eigenvalues not converged
     c_bands:  1 eigenvalues not converged
     c_bands:  1 eigenvalues not converged
     c_bands:  1 eigenvalues not converged
     c_bands:  1 eigenvalues not converged
     c_bands:  1 eigenvalues not converged
     c_bands:  1 eigenvalues not converged
     c_bands:  1 eigenvalues not converged
     c_bands:  1 eigenvalues not converged
     c_bands:  1 eigenvalues not converged
     c_bands:  1 eigenvalues not converged
     c_bands:  1 eigenvalues not converged
     c_bands:  1 eigenvalues not converged
     c_bands:  1 eigenvalues not converged
     c_bands:  1 eigenvalues not converged
     c_bands:  1 eigenvalues not converged
     c_bands:  1 eigenvalues not converged
     c_bands:  1 eigenvalues not converged
     c_bands:  1 eigenvalues not converged
     c_bands:  1 eigenvalues not converged
     c_bands:  1 eigenvalues not converged
     c_bands:  1 eigenvalues not converged
     c_bands:  1 eigenvalues not converged
     c_bands:  1 eigenvalues not converged
     c_bands:  1 eigenvalues not converged
     c_bands:  1 eigenvalues not converged
     c_bands:  1 eigenvalues not converged
     c_bands:  1 eigenvalues not converged
     c_bands:  1 eigenvalues not converged
     c_bands:  1 eigenvalues not converged
     c_bands:  1 eigenvalues not converged
     c_bands:  1 eigenvalues not converged
     c_bands:  1 eigenvalues not converged
     c_bands:  1 eigenvalues not converged
     c_bands:  1 eigenvalues not converged
     c_bands:  1 eigenvalues not converged
     c_bands:  1 eigenvalues not converged
     c_bands:  1 eigenvalues not converged
     c_bands:  1 eigenvalues not converged
     c_bands:  1 eigenvalues not converged
     c_bands:  1 eigenvalues not converged
     c_bands:  1 eigenvalues not converged
     c_bands:  1 eigenvalues not converged
     c_bands:  1 eigenvalues not converged
     c_bands:  1 eigenvalues not converged
     c_bands:  1 eigenvalues not converged
     c_bands:  1 eigenvalues not converged
     c_bands:  1 eigenvalues not converged
     c_bands:  1 eigenvalues not converged
     c_bands:  1 eigenvalues not converged
     c_bands:  1 eigenvalues not converged
     c_bands:  1 eigenvalues not converged
     c_bands:  1 eigenvalues not converged
     c_bands:  1 eigenvalues not converged
     ethr =  1.00E-06,  avg # of iterations = 14.4

     total cpu time spent up to now is      571.7 secs

     total energy              =     -94.32430988 Ry
     estimated scf accuracy    <       0.06893011 Ry

     iteration #  2     ecut=    80.00 Ry     beta= 0.30
     Davidson diagonalization with overlap
     ethr =  3.28E-04,  avg # of iterations =  3.0

     total cpu time spent up to now is      588.6 secs

     total energy              =     -94.36285816 Ry
     estimated scf accuracy    <       0.02166820 Ry

     iteration #  3     ecut=    80.00 Ry     beta= 0.30
     Davidson diagonalization with overlap
     ethr =  1.03E-04,  avg # of iterations =  2.3

     total cpu time spent up to now is      600.2 secs

     total energy              =     -94.36279945 Ry
     estimated scf accuracy    <       0.00614579 Ry

     iteration #  4     ecut=    80.00 Ry     beta= 0.30
     Davidson diagonalization with overlap
     ethr =  2.93E-05,  avg # of iterations =  3.9

     total cpu time spent up to now is      613.3 secs

     total energy              =     -94.36374080 Ry
     estimated scf accuracy    <       0.00091371 Ry

     iteration #  5     ecut=    80.00 Ry     beta= 0.30
     Davidson diagonalization with overlap
     ethr =  4.35E-06,  avg # of iterations =  4.9

     total cpu time spent up to now is      627.4 secs

     total energy              =     -94.36391006 Ry
     estimated scf accuracy    <       0.00005864 Ry

     iteration #  6     ecut=    80.00 Ry     beta= 0.30
     Davidson diagonalization with overlap
     ethr =  2.79E-07,  avg # of iterations =  3.3

     total cpu time spent up to now is      640.6 secs

     total energy              =     -94.36392653 Ry
     estimated scf accuracy    <       0.00001353 Ry

     iteration #  7     ecut=    80.00 Ry     beta= 0.30
     Davidson diagonalization with overlap
     ethr =  6.44E-08,  avg # of iterations =  3.7

     total cpu time spent up to now is      654.4 secs

     total energy              =     -94.36392927 Ry
     estimated scf accuracy    <       0.00000482 Ry

     iteration #  8     ecut=    80.00 Ry     beta= 0.30
     Davidson diagonalization with overlap
     ethr =  2.30E-08,  avg # of iterations =  3.8

     total cpu time spent up to now is      669.4 secs

     total energy              =     -94.36392890 Ry
     estimated scf accuracy    <       0.00000608 Ry

     iteration #  9     ecut=    80.00 Ry     beta= 0.30
     Davidson diagonalization with overlap
     ethr =  2.30E-08,  avg # of iterations =  2.5

     total cpu time spent up to now is      682.6 secs

     total energy              =     -94.36393048 Ry
     estimated scf accuracy    <       0.00000020 Ry

     iteration # 10     ecut=    80.00 Ry     beta= 0.30
     Davidson diagonalization with overlap
     ethr =  9.34E-10,  avg # of iterations =  4.4

     total cpu time spent up to now is      698.4 secs

     total energy              =     -94.36393049 Ry
     estimated scf accuracy    <       0.00000039 Ry

     iteration # 11     ecut=    80.00 Ry     beta= 0.30
     Davidson diagonalization with overlap
     ethr =  9.34E-10,  avg # of iterations =  2.0

     total cpu time spent up to now is      710.4 secs

     total energy              =     -94.36393050 Ry
     estimated scf accuracy    <       0.00000005 Ry

     iteration # 12     ecut=    80.00 Ry     beta= 0.30
     Davidson diagonalization with overlap
     ethr =  2.30E-10,  avg # of iterations =  4.2

     total cpu time spent up to now is      726.0 secs

     total energy              =     -94.36393053 Ry
     estimated scf accuracy    <          4.5E-09 Ry

     iteration # 13     ecut=    80.00 Ry     beta= 0.30
     Davidson diagonalization with overlap
     ethr =  2.13E-11,  avg # of iterations =  2.6

     total cpu time spent up to now is      737.8 secs

     total energy              =     -94.36393053 Ry
     estimated scf accuracy    <          9.6E-09 Ry

     iteration # 14     ecut=    80.00 Ry     beta= 0.30
     Davidson diagonalization with overlap
     ethr =  2.13E-11,  avg # of iterations =  2.0

     total cpu time spent up to now is      749.9 secs

     total energy              =     -94.36393053 Ry
     estimated scf accuracy    <          9.9E-10 Ry

     iteration # 15     ecut=    80.00 Ry     beta= 0.30
     Davidson diagonalization with overlap
     ethr =  4.71E-12,  avg # of iterations =  4.2

     total cpu time spent up to now is      764.9 secs

     End of self-consistent calculation

     Number of k-points >= 100: set verbosity='high' to print the bands.

     the Fermi energy is     8.5686 ev

!    total energy              =     -94.36393053 Ry
     estimated scf accuracy    <          3.3E-11 Ry
     smearing contrib. (-TS)   =      -0.00007752 Ry
     internal energy E=F+TS    =     -94.36385301 Ry

     The total energy is F=E-TS. E is the sum of the following terms:
     one-electron contribution =     -15.36338768 Ry
     hartree contribution      =      15.93064851 Ry
     xc contribution           =     -26.31455910 Ry
     ewald contribution        =     -68.61655474 Ry

     convergence has been achieved in  15 iterations

     Forces acting on atoms (cartesian axes, Ry/au):

     atom    1 type  1   force =    -0.00000001    0.00000000   -0.00000000
     atom    2 type  2   force =     0.00000000   -0.00000001    0.00000002
     atom    3 type  3   force =    -0.06522183    0.06522183    0.06522183
     atom    4 type  3   force =     0.06522183   -0.06522183   -0.06522183
     atom    5 type  3   force =     0.00015668   -0.00015668    0.26338961
     atom    6 type  3   force =    -0.00015668    0.00015668   -0.26338964
     atom    7 type  3   force =    -0.26338962   -0.00015668   -0.00015668
     atom    8 type  3   force =     0.26338962    0.00015668    0.00015668
     atom    9 type  3   force =     0.00015668    0.26338962   -0.00015668
     atom   10 type  3   force =    -0.00015668   -0.26338961    0.00015669

     Total force =     0.664656     Total SCF correction =     0.000004


     Computing stress (Cartesian axis) and pressure

          total   stress  (Ry/bohr**3)                   (kbar)     P=      870.65
   0.00591856  -0.00111259  -0.00111259          870.65     -163.67     -163.67
  -0.00111259   0.00591856   0.00111259         -163.67      870.65      163.67
  -0.00111259   0.00111259   0.00591856         -163.67      163.67      870.65

     Energy error            =      5.1E-01
     Gradient error          =      2.6E-01
     Cell gradient error     =      2.5E-03


     number of scf cycles    =   3
     number of bfgs steps    =   2

     enthalpy old            =     -92.6671383393 Ry
     enthalpy new            =     -93.1787371922 Ry

     CASE: enthalpy_new < enthalpy_old

     new trust radius        =       0.2821990737 bohr
     new conv_thr            =            1.0E-10 Ry

     new unit-cell volume =    348.67723 a.u.^3 (    51.66863 Ang^3 )
     density =      3.40608 g/cm^3

CELL_PARAMETERS (alat=  9.45000000)
  -0.649209507   0.107009232   0.649209511
  -0.107009230   0.649209513   0.649209512
  -0.649209510   0.649209513   0.107009229

ATOMIC_POSITIONS (crystal)
Y             0.0000000001       -0.0000000005        0.0000000021
Be            0.5000000052        0.5000000013        0.4999999945
H             0.1578010960        0.1578010969        0.1578010968
H            -0.1578010957       -0.1578010970       -0.1578010962
H             0.7019871828        0.7019871841        0.3122485335
H             0.2980128118        0.2980128097        0.6877514697
H             0.7019871865        0.3122485326        0.7019871871
H             0.2980128148        0.6877514681        0.2980128119
H             0.3122485334        0.7019871863        0.7019871843
H             0.6877514651        0.2980128185        0.2980128164



     Writing output data file ./out/ybeh8.save/
     NEW-OLD atomic charge density approx. for the potential
     extrapolated charge   20.99887, renormalised to   21.00000

     total cpu time spent up to now is      772.2 secs

     Self-consistent Calculation

     iteration #  1     ecut=    80.00 Ry     beta= 0.30
     Davidson diagonalization with overlap
     c_bands:  1 eigenvalues not converged
     c_bands:  1 eigenvalues not converged
     c_bands:  1 eigenvalues not converged
     c_bands:  1 eigenvalues not converged
     c_bands:  1 eigenvalues not converged
     c_bands:  1 eigenvalues not converged
     c_bands:  1 eigenvalues not converged
     c_bands:  1 eigenvalues not converged
     c_bands:  1 eigenvalues not converged
     c_bands:  1 eigenvalues not converged
     c_bands:  1 eigenvalues not converged
     c_bands:  1 eigenvalues not converged
     c_bands:  1 eigenvalues not converged
     c_bands:  1 eigenvalues not converged
     c_bands:  1 eigenvalues not converged
     c_bands:  1 eigenvalues not converged
     c_bands:  1 eigenvalues not converged
     c_bands:  1 eigenvalues not converged
     c_bands:  1 eigenvalues not converged
     c_bands:  1 eigenvalues not converged
     c_bands:  1 eigenvalues not converged
     c_bands:  1 eigenvalues not converged
     c_bands:  1 eigenvalues not converged
     c_bands:  1 eigenvalues not converged
     c_bands:  1 eigenvalues not converged
     c_bands:  1 eigenvalues not converged
     c_bands:  1 eigenvalues not converged
     c_bands:  1 eigenvalues not converged
     c_bands:  1 eigenvalues not converged
     c_bands:  1 eigenvalues not converged
     c_bands:  1 eigenvalues not converged
     c_bands:  1 eigenvalues not converged
     c_bands:  1 eigenvalues not converged
     c_bands:  1 eigenvalues not converged
     c_bands:  1 eigenvalues not converged
     c_bands:  1 eigenvalues not converged
     c_bands:  1 eigenvalues not converged
     c_bands:  1 eigenvalues not converged
     c_bands:  1 eigenvalues not converged
     c_bands:  1 eigenvalues not converged
     c_bands:  1 eigenvalues not converged
     c_bands:  1 eigenvalues not converged
     c_bands:  1 eigenvalues not converged
     c_bands:  1 eigenvalues not converged
     c_bands:  1 eigenvalues not converged
     c_bands:  1 eigenvalues not converged
     c_bands:  1 eigenvalues not converged
     c_bands:  1 eigenvalues not converged
     c_bands:  1 eigenvalues not converged
     c_bands:  1 eigenvalues not converged
     c_bands:  1 eigenvalues not converged
     c_bands:  1 eigenvalues not converged
     c_bands:  1 eigenvalues not converged
     c_bands:  1 eigenvalues not converged
     c_bands:  1 eigenvalues not converged
     c_bands:  1 eigenvalues not converged
     c_bands:  1 eigenvalues not converged
     c_bands:  1 eigenvalues not converged
     c_bands:  1 eigenvalues not converged
     c_bands:  1 eigenvalues not converged
     c_bands:  1 eigenvalues not converged
     c_bands:  1 eigenvalues not converged
     c_bands:  1 eigenvalues not converged
     c_bands:  1 eigenvalues not converged
     c_bands:  1 eigenvalues not converged
     c_bands:  1 eigenvalues not converged
     c_bands:  1 eigenvalues not converged
     c_bands:  1 eigenvalues not converged
     c_bands:  1 eigenvalues not converged
     c_bands:  1 eigenvalues not converged
     c_bands:  1 eigenvalues not converged
     c_bands:  1 eigenvalues not converged
     c_bands:  1 eigenvalues not converged
     c_bands:  1 eigenvalues not converged
     c_bands:  1 eigenvalues not converged
     c_bands:  1 eigenvalues not converged
     c_bands:  1 eigenvalues not converged
     c_bands:  1 eigenvalues not converged
     c_bands:  1 eigenvalues not converged
     c_bands:  1 eigenvalues not converged
     c_bands:  1 eigenvalues not converged
     c_bands:  1 eigenvalues not converged
     c_bands:  1 eigenvalues not converged
     c_bands:  1 eigenvalues not converged
     c_bands:  1 eigenvalues not converged
     c_bands:  1 eigenvalues not converged
     c_bands:  1 eigenvalues not converged
     c_bands:  1 eigenvalues not converged
     c_bands:  1 eigenvalues not converged
     c_bands:  1 eigenvalues not converged
     c_bands:  1 eigenvalues not converged
     c_bands:  1 eigenvalues not converged
     c_bands:  1 eigenvalues not converged
     c_bands:  1 eigenvalues not converged
     c_bands:  1 eigenvalues not converged
     c_bands:  1 eigenvalues not converged
     c_bands:  1 eigenvalues not converged
     c_bands:  1 eigenvalues not converged
     c_bands:  1 eigenvalues not converged
     c_bands:  1 eigenvalues not converged
     c_bands:  1 eigenvalues not converged
     c_bands:  1 eigenvalues not converged
     c_bands:  1 eigenvalues not converged
     c_bands:  1 eigenvalues not converged
     c_bands:  1 eigenvalues not converged
     c_bands:  1 eigenvalues not converged
     c_bands:  1 eigenvalues not converged
     c_bands:  1 eigenvalues not converged
     c_bands:  1 eigenvalues not converged
     c_bands:  1 eigenvalues not converged
     c_bands:  1 eigenvalues not converged
     c_bands:  1 eigenvalues not converged
     c_bands:  1 eigenvalues not converged
     c_bands:  1 eigenvalues not converged
     c_bands:  1 eigenvalues not converged
     c_bands:  1 eigenvalues not converged
     c_bands:  1 eigenvalues not converged
     c_bands:  1 eigenvalues not converged
     c_bands:  1 eigenvalues not converged
     c_bands:  1 eigenvalues not converged
     c_bands:  1 eigenvalues not converged
     c_bands:  1 eigenvalues not converged
     c_bands:  1 eigenvalues not converged
     c_bands:  1 eigenvalues not converged
     c_bands:  1 eigenvalues not converged
     c_bands:  1 eigenvalues not converged
     c_bands:  1 eigenvalues not converged
     c_bands:  1 eigenvalues not converged
     c_bands:  1 eigenvalues not converged
     c_bands:  1 eigenvalues not converged
     c_bands:  1 eigenvalues not converged
     c_bands:  1 eigenvalues not converged
     c_bands:  1 eigenvalues not converged
     c_bands:  1 eigenvalues not converged
     c_bands:  1 eigenvalues not converged
     c_bands:  1 eigenvalues not converged
     c_bands:  1 eigenvalues not converged
     c_bands:  1 eigenvalues not converged
     c_bands:  1 eigenvalues not converged
     c_bands:  1 eigenvalues not converged
     c_bands:  1 eigenvalues not converged
     c_bands:  1 eigenvalues not converged
     c_bands:  1 eigenvalues not converged
     c_bands:  1 eigenvalues not converged
     c_bands:  1 eigenvalues not converged
     c_bands:  1 eigenvalues not converged
     c_bands:  1 eigenvalues not converged
     c_bands:  1 eigenvalues not converged
     c_bands:  1 eigenvalues not converged
     c_bands:  1 eigenvalues not converged
     c_bands:  1 eigenvalues not converged
     c_bands:  1 eigenvalues not converged
     c_bands:  1 eigenvalues not converged
     c_bands:  1 eigenvalues not converged
     c_bands:  1 eigenvalues not converged
     c_bands:  1 eigenvalues not converged
     c_bands:  1 eigenvalues not converged
     c_bands:  1 eigenvalues not converged
     c_bands:  1 eigenvalues not converged
     c_bands:  1 eigenvalues not converged
     c_bands:  1 eigenvalues not converged
     c_bands:  1 eigenvalues not converged
     c_bands:  1 eigenvalues not converged
     c_bands:  1 eigenvalues not converged
     c_bands:  1 eigenvalues not converged
     c_bands:  1 eigenvalues not converged
     c_bands:  1 eigenvalues not converged
     c_bands:  1 eigenvalues not converged
     c_bands:  1 eigenvalues not converged
     c_bands:  1 eigenvalues not converged
     c_bands:  1 eigenvalues not converged
     c_bands:  1 eigenvalues not converged
     c_bands:  1 eigenvalues not converged
     ethr =  1.00E-06,  avg # of iterations = 15.8

     total cpu time spent up to now is      827.8 secs

     total energy              =     -94.67498227 Ry
     estimated scf accuracy    <       0.25472436 Ry

     iteration #  2     ecut=    80.00 Ry     beta= 0.30
     Davidson diagonalization with overlap
     ethr =  1.21E-03,  avg # of iterations =  1.5

     total cpu time spent up to now is      838.6 secs

     total energy              =     -94.69304710 Ry
     estimated scf accuracy    <       0.02928187 Ry

     iteration #  3     ecut=    80.00 Ry     beta= 0.30
     Davidson diagonalization with overlap
     ethr =  1.39E-04,  avg # of iterations =  4.1

     total cpu time spent up to now is      853.9 secs

     total energy              =     -94.70150114 Ry
     estimated scf accuracy    <       0.00587273 Ry

     iteration #  4     ecut=    80.00 Ry     beta= 0.30
     Davidson diagonalization with overlap
     ethr =  2.80E-05,  avg # of iterations =  2.3

     total cpu time spent up to now is      865.5 secs

     total energy              =     -94.70209000 Ry
     estimated scf accuracy    <       0.00147727 Ry

     iteration #  5     ecut=    80.00 Ry     beta= 0.30
     Davidson diagonalization with overlap
     ethr =  7.03E-06,  avg # of iterations =  3.7

     total cpu time spent up to now is      878.7 secs

     total energy              =     -94.70223597 Ry
     estimated scf accuracy    <       0.00012591 Ry

     iteration #  6     ecut=    80.00 Ry     beta= 0.30
     Davidson diagonalization with overlap
     ethr =  6.00E-07,  avg # of iterations =  4.3

     total cpu time spent up to now is      895.1 secs

     total energy              =     -94.70228954 Ry
     estimated scf accuracy    <       0.00007496 Ry

     iteration #  7     ecut=    80.00 Ry     beta= 0.30
     Davidson diagonalization with overlap
     ethr =  3.57E-07,  avg # of iterations =  2.0

     total cpu time spent up to now is      907.2 secs

     total energy              =     -94.70230535 Ry
     estimated scf accuracy    <       0.00000176 Ry

     iteration #  8     ecut=    80.00 Ry     beta= 0.30
     Davidson diagonalization with overlap
     ethr =  8.40E-09,  avg # of iterations =  5.5

     total cpu time spent up to now is      927.1 secs

     total energy              =     -94.70230434 Ry
     estimated scf accuracy    <       0.00000892 Ry

     iteration #  9     ecut=    80.00 Ry     beta= 0.30
     Davidson diagonalization with overlap
     ethr =  8.40E-09,  avg # of iterations =  3.4

     total cpu time spent up to now is      942.0 secs

     total energy              =     -94.70230547 Ry
     estimated scf accuracy    <       0.00000037 Ry

     iteration # 10     ecut=    80.00 Ry     beta= 0.30
     Davidson diagonalization with overlap
     ethr =  1.78E-09,  avg # of iterations =  4.0

     total cpu time spent up to now is      956.4 secs

     total energy              =     -94.70230561 Ry
     estimated scf accuracy    <       0.00000005 Ry

     iteration # 11     ecut=    80.00 Ry     beta= 0.30
     Davidson diagonalization with overlap
     ethr =  2.38E-10,  avg # of iterations =  2.0

     total cpu time spent up to now is      967.9 secs

     total energy              =     -94.70230562 Ry
     estimated scf accuracy    <          7.4E-09 Ry

     iteration # 12     ecut=    80.00 Ry     beta= 0.30
     Davidson diagonalization with overlap
     ethr =  3.52E-11,  avg # of iterations =  4.2

     total cpu time spent up to now is      982.5 secs

     total energy              =     -94.70230562 Ry
     estimated scf accuracy    <          6.5E-10 Ry

     iteration # 13     ecut=    80.00 Ry     beta= 0.30
     Davidson diagonalization with overlap
     ethr =  3.08E-12,  avg # of iterations =  3.8

     total cpu time spent up to now is      996.4 secs

     End of self-consistent calculation

     Number of k-points >= 100: set verbosity='high' to print the bands.

     the Fermi energy is     8.3247 ev

!    total energy              =     -94.70230562 Ry
     estimated scf accuracy    <          4.3E-11 Ry
     smearing contrib. (-TS)   =       0.00010623 Ry
     internal energy E=F+TS    =     -94.70241185 Ry

     The total energy is F=E-TS. E is the sum of the following terms:
     one-electron contribution =     -14.39657347 Ry
     hartree contribution      =      15.49420261 Ry
     xc contribution           =     -26.06098174 Ry
     ewald contribution        =     -69.73905926 Ry

     convergence has been achieved in  13 iterations

     Forces acting on atoms (cartesian axes, Ry/au):

     atom    1 type  1   force =    -0.00000000    0.00000000   -0.00000003
     atom    2 type  2   force =     0.00000000    0.00000001   -0.00000004
     atom    3 type  3   force =    -0.00634731    0.00634732    0.00634732
     atom    4 type  3   force =     0.00634731   -0.00634732   -0.00634731
     atom    5 type  3   force =     0.01680912   -0.01680912    0.05396378
     atom    6 type  3   force =    -0.01680912    0.01680913   -0.05396371
     atom    7 type  3   force =    -0.05396374   -0.01680912   -0.01680912
     atom    8 type  3   force =     0.05396373    0.01680912    0.01680912
     atom    9 type  3   force =     0.01680912    0.05396375   -0.01680912
     atom   10 type  3   force =    -0.01680912   -0.05396378    0.01680912

     Total force =     0.145275     Total SCF correction =     0.000005


     Computing stress (Cartesian axis) and pressure

          total   stress  (Ry/bohr**3)                   (kbar)     P=      665.61
   0.00452475  -0.00092516  -0.00092516          665.61     -136.10     -136.10
  -0.00092516   0.00452475   0.00092516         -136.10      665.61      136.10
  -0.00092516   0.00092516   0.00452475         -136.10      136.10      665.61

     Energy error            =      3.4E-01
     Gradient error          =      5.4E-02
     Cell gradient error     =      1.1E-03


     number of scf cycles    =   4
     number of bfgs steps    =   3

     enthalpy old            =     -93.1787371922 Ry
     enthalpy new            =     -93.5171758179 Ry

     CASE: enthalpy_new < enthalpy_old

     new trust radius        =       0.1746827782 bohr
     new conv_thr            =            1.0E-10 Ry

     new unit-cell volume =    356.75260 a.u.^3 (    52.86528 Ang^3 )
     density =      3.32898 g/cm^3

CELL_PARAMETERS (alat=  9.45000000)
  -0.679425504   0.150136267   0.679425507
  -0.150136262   0.679425510   0.679425510
  -0.679425508   0.679425510   0.150136262

ATOMIC_POSITIONS (crystal)
Y            -0.0000000048       -0.0000000056        0.0000000075
Be            0.4999999979        0.4999999979        0.4999999996
H             0.1596679942        0.1596679962        0.1596679947
H            -0.1596679933       -0.1596679956       -0.1596679944
H             0.7088572355        0.7088572376        0.3039212447
H             0.2911427684        0.2911427667        0.6960787527
H             0.7088572323        0.3039212484        0.7088572336
H             0.2911427698        0.6960787523        0.2911427660
H             0.3039212473        0.7088572344        0.7088572319
H             0.6960787526        0.2911427677        0.2911427639



     Writing output data file ./out/ybeh8.save/
     NEW-OLD atomic charge density approx. for the potential
     extrapolated charge   21.47525, renormalised to   21.00000

     total cpu time spent up to now is     1003.7 secs

     Self-consistent Calculation

     iteration #  1     ecut=    80.00 Ry     beta= 0.30
     Davidson diagonalization with overlap
     c_bands:  1 eigenvalues not converged
     c_bands:  1 eigenvalues not converged
     c_bands:  1 eigenvalues not converged
     c_bands:  1 eigenvalues not converged
     c_bands:  1 eigenvalues not converged
     c_bands:  1 eigenvalues not converged
     c_bands:  1 eigenvalues not converged
     c_bands:  1 eigenvalues not converged
     c_bands:  1 eigenvalues not converged
     c_bands:  1 eigenvalues not converged
     c_bands:  1 eigenvalues not converged
     c_bands:  1 eigenvalues not converged
     c_bands:  1 eigenvalues not converged
     c_bands:  1 eigenvalues not converged
     c_bands:  1 eigenvalues not converged
     c_bands:  1 eigenvalues not converged
     c_bands:  1 eigenvalues not converged
     c_bands:  1 eigenvalues not converged
     c_bands:  1 eigenvalues not converged
     c_bands:  1 eigenvalues not converged
     c_bands:  1 eigenvalues not converged
     c_bands:  1 eigenvalues not converged
     c_bands:  1 eigenvalues not converged
     c_bands:  1 eigenvalues not converged
     c_bands:  1 eigenvalues not converged
     c_bands:  1 eigenvalues not converged
     c_bands:  1 eigenvalues not converged
     c_bands:  1 eigenvalues not converged
     c_bands:  1 eigenvalues not converged
     c_bands:  1 eigenvalues not converged
     c_bands:  1 eigenvalues not converged
     c_bands:  1 eigenvalues not converged
     c_bands:  1 eigenvalues not converged
     c_bands:  1 eigenvalues not converged
     c_bands:  1 eigenvalues not converged
     c_bands:  1 eigenvalues not converged
     c_bands:  1 eigenvalues not converged
     c_bands:  1 eigenvalues not converged
     c_bands:  1 eigenvalues not converged
     c_bands:  1 eigenvalues not converged
     c_bands:  1 eigenvalues not converged
     c_bands:  1 eigenvalues not converged
     c_bands:  1 eigenvalues not converged
     c_bands:  1 eigenvalues not converged
     c_bands:  1 eigenvalues not converged
     c_bands:  1 eigenvalues not converged
     c_bands:  1 eigenvalues not converged
     c_bands:  1 eigenvalues not converged
     c_bands:  1 eigenvalues not converged
     c_bands:  1 eigenvalues not converged
     c_bands:  1 eigenvalues not converged
     c_bands:  1 eigenvalues not converged
     c_bands:  1 eigenvalues not converged
     c_bands:  1 eigenvalues not converged
     c_bands:  1 eigenvalues not converged
     c_bands:  1 eigenvalues not converged
     c_bands:  1 eigenvalues not converged
     c_bands:  1 eigenvalues not converged
     c_bands:  1 eigenvalues not converged
     c_bands:  1 eigenvalues not converged
     c_bands:  1 eigenvalues not converged
     c_bands:  1 eigenvalues not converged
     c_bands:  1 eigenvalues not converged
     c_bands:  1 eigenvalues not converged
     c_bands:  1 eigenvalues not converged
     c_bands:  1 eigenvalues not converged
     c_bands:  1 eigenvalues not converged
     c_bands:  1 eigenvalues not converged
     c_bands:  1 eigenvalues not converged
     c_bands:  1 eigenvalues not converged
     c_bands:  1 eigenvalues not converged
     c_bands:  1 eigenvalues not converged
     c_bands:  1 eigenvalues not converged
     c_bands:  1 eigenvalues not converged
     c_bands:  1 eigenvalues not converged
     c_bands:  1 eigenvalues not converged
     c_bands:  1 eigenvalues not converged
     c_bands:  1 eigenvalues not converged
     c_bands:  1 eigenvalues not converged
     c_bands:  1 eigenvalues not converged
     c_bands:  1 eigenvalues not converged
     c_bands:  1 eigenvalues not converged
     c_bands:  1 eigenvalues not converged
     c_bands:  1 eigenvalues not converged
     c_bands:  1 eigenvalues not converged
     c_bands:  1 eigenvalues not converged
     c_bands:  1 eigenvalues not converged
     c_bands:  1 eigenvalues not converged
     c_bands:  1 eigenvalues not converged
     c_bands:  1 eigenvalues not converged
     c_bands:  1 eigenvalues not converged
     c_bands:  1 eigenvalues not converged
     c_bands:  1 eigenvalues not converged
     c_bands:  1 eigenvalues not converged
     c_bands:  1 eigenvalues not converged
     c_bands:  1 eigenvalues not converged
     c_bands:  1 eigenvalues not converged
     c_bands:  1 eigenvalues not converged
     c_bands:  1 eigenvalues not converged
     c_bands:  1 eigenvalues not converged
     c_bands:  1 eigenvalues not converged
     c_bands:  1 eigenvalues not converged
     c_bands:  1 eigenvalues not converged
     c_bands:  1 eigenvalues not converged
     c_bands:  1 eigenvalues not converged
     c_bands:  1 eigenvalues not converged
     c_bands:  1 eigenvalues not converged
     c_bands:  1 eigenvalues not converged
     c_bands:  1 eigenvalues not converged
     c_bands:  1 eigenvalues not converged
     c_bands:  1 eigenvalues not converged
     c_bands:  1 eigenvalues not converged
     c_bands:  1 eigenvalues not converged
     c_bands:  1 eigenvalues not converged
     c_bands:  1 eigenvalues not converged
     c_bands:  1 eigenvalues not converged
     c_bands:  1 eigenvalues not converged
     c_bands:  1 eigenvalues not converged
     c_bands:  1 eigenvalues not converged
     c_bands:  1 eigenvalues not converged
     c_bands:  1 eigenvalues not converged
     c_bands:  1 eigenvalues not converged
     c_bands:  1 eigenvalues not converged
     c_bands:  1 eigenvalues not converged
     c_bands:  1 eigenvalues not converged
     c_bands:  1 eigenvalues not converged
     c_bands:  1 eigenvalues not converged
     c_bands:  1 eigenvalues not converged
     c_bands:  1 eigenvalues not converged
     c_bands:  1 eigenvalues not converged
     c_bands:  1 eigenvalues not converged
     c_bands:  1 eigenvalues not converged
     c_bands:  1 eigenvalues not converged
     c_bands:  1 eigenvalues not converged
     c_bands:  1 eigenvalues not converged
     c_bands:  1 eigenvalues not converged
     c_bands:  1 eigenvalues not converged
     c_bands:  1 eigenvalues not converged
     c_bands:  1 eigenvalues not converged
     c_bands:  1 eigenvalues not converged
     c_bands:  1 eigenvalues not converged
     c_bands:  1 eigenvalues not converged
     ethr =  1.00E-06,  avg # of iterations = 13.8

     total cpu time spent up to now is     1048.7 secs

     total energy              =     -94.79795219 Ry
     estimated scf accuracy    <       0.02091746 Ry

     iteration #  2     ecut=    80.00 Ry     beta= 0.30
     Davidson diagonalization with overlap
     ethr =  9.96E-05,  avg # of iterations =  2.1

     total cpu time spent up to now is     1063.4 secs

     total energy              =     -94.79976654 Ry
     estimated scf accuracy    <       0.01380793 Ry

     iteration #  3     ecut=    80.00 Ry     beta= 0.30
     Davidson diagonalization with overlap
     ethr =  6.58E-05,  avg # of iterations =  1.1

     total cpu time spent up to now is     1073.6 secs

     total energy              =     -94.80108266 Ry
     estimated scf accuracy    <       0.00118048 Ry

     iteration #  4     ecut=    80.00 Ry     beta= 0.30
     Davidson diagonalization with overlap
     c_bands:  1 eigenvalues not converged
     c_bands:  1 eigenvalues not converged
     c_bands:  1 eigenvalues not converged
     c_bands:  1 eigenvalues not converged
     c_bands:  1 eigenvalues not converged
     c_bands:  1 eigenvalues not converged
     c_bands:  1 eigenvalues not converged
     c_bands:  1 eigenvalues not converged
     c_bands:  1 eigenvalues not converged
     c_bands:  1 eigenvalues not converged
     c_bands:  1 eigenvalues not converged
     c_bands:  1 eigenvalues not converged
     c_bands:  1 eigenvalues not converged
     c_bands:  1 eigenvalues not converged
     c_bands:  1 eigenvalues not converged
     ethr =  5.62E-06,  avg # of iterations =  4.7

     total cpu time spent up to now is     1088.5 secs

     total energy              =     -94.80141090 Ry
     estimated scf accuracy    <       0.00023487 Ry

     iteration #  5     ecut=    80.00 Ry     beta= 0.30
     Davidson diagonalization with overlap
     ethr =  1.12E-06,  avg # of iterations =  2.3

     total cpu time spent up to now is     1099.7 secs

     total energy              =     -94.80142865 Ry
     estimated scf accuracy    <       0.00006952 Ry

     iteration #  6     ecut=    80.00 Ry     beta= 0.30
     Davidson diagonalization with overlap
     ethr =  3.31E-07,  avg # of iterations =  2.2

     total cpu time spent up to now is     1111.6 secs

     total energy              =     -94.80143655 Ry
     estimated scf accuracy    <       0.00000378 Ry

     iteration #  7     ecut=    80.00 Ry     beta= 0.30
     Davidson diagonalization with overlap
     ethr =  1.80E-08,  avg # of iterations =  4.4

     total cpu time spent up to now is     1128.1 secs

     total energy              =     -94.80143814 Ry
     estimated scf accuracy    <       0.00000078 Ry

     iteration #  8     ecut=    80.00 Ry     beta= 0.30
     Davidson diagonalization with overlap
     ethr =  3.71E-09,  avg # of iterations =  2.3

     total cpu time spent up to now is     1141.4 secs

     total energy              =     -94.80143825 Ry
     estimated scf accuracy    <       0.00000021 Ry

     iteration #  9     ecut=    80.00 Ry     beta= 0.30
     Davidson diagonalization with overlap
     ethr =  1.01E-09,  avg # of iterations =  2.5

     total cpu time spent up to now is     1155.1 secs

     total energy              =     -94.80143830 Ry
     estimated scf accuracy    <          5.0E-09 Ry

     iteration # 10     ecut=    80.00 Ry     beta= 0.30
     Davidson diagonalization with overlap
     c_bands:  1 eigenvalues not converged
     c_bands:  1 eigenvalues not converged
     c_bands:  1 eigenvalues not converged
     c_bands:  1 eigenvalues not converged
     c_bands:  1 eigenvalues not converged
     c_bands:  1 eigenvalues not converged
     ethr =  2.36E-11,  avg # of iterations =  4.9

     total cpu time spent up to now is     1172.6 secs

     total energy              =     -94.80143830 Ry
     estimated scf accuracy    <          7.5E-09 Ry

     iteration # 11     ecut=    80.00 Ry     beta= 0.30
     Davidson diagonalization with overlap
     ethr =  2.36E-11,  avg # of iterations =  2.2

     total cpu time spent up to now is     1186.7 secs

     total energy              =     -94.80143830 Ry
     estimated scf accuracy    <          4.4E-10 Ry

     iteration # 12     ecut=    80.00 Ry     beta= 0.30
     Davidson diagonalization with overlap
     ethr =  2.09E-12,  avg # of iterations =  3.1

     total cpu time spent up to now is     1200.1 secs

     total energy              =     -94.80143830 Ry
     estimated scf accuracy    <          1.9E-10 Ry

     iteration # 13     ecut=    80.00 Ry     beta= 0.30
     Davidson diagonalization with overlap
     ethr =  8.88E-13,  avg # of iterations =  2.1

     total cpu time spent up to now is     1213.1 secs

     End of self-consistent calculation

     Number of k-points >= 100: set verbosity='high' to print the bands.

     the Fermi energy is     8.2494 ev

!    total energy              =     -94.80143830 Ry
     estimated scf accuracy    <          9.5E-13 Ry
     smearing contrib. (-TS)   =      -0.00007895 Ry
     internal energy E=F+TS    =     -94.80135935 Ry

     The total energy is F=E-TS. E is the sum of the following terms:
     one-electron contribution =     -14.84142106 Ry
     hartree contribution      =      15.52259479 Ry
     xc contribution           =     -25.90107106 Ry
     ewald contribution        =     -69.58146202 Ry

     convergence has been achieved in  13 iterations

     Forces acting on atoms (cartesian axes, Ry/au):

     atom    1 type  1   force =    -0.00000002    0.00000001    0.00000003
     atom    2 type  2   force =    -0.00000002    0.00000001    0.00000003
     atom    3 type  3   force =     0.02349647   -0.02349647   -0.02349647
     atom    4 type  3   force =    -0.02349647    0.02349647    0.02349647
     atom    5 type  3   force =     0.02612859   -0.02612859    0.00684155
     atom    6 type  3   force =    -0.02612857    0.02612857   -0.00684162
     atom    7 type  3   force =    -0.00684159   -0.02612858   -0.02612858
     atom    8 type  3   force =     0.00684160    0.02612858    0.02612858
     atom    9 type  3   force =     0.02612858    0.00684159   -0.02612858
     atom   10 type  3   force =    -0.02612858   -0.00684159    0.02612859

     Total force =     0.108562     Total SCF correction =     0.000000


     Computing stress (Cartesian axis) and pressure

          total   stress  (Ry/bohr**3)                   (kbar)     P=      532.64
   0.00362081  -0.00065999  -0.00065999          532.64      -97.09      -97.09
  -0.00065999   0.00362081   0.00065999          -97.09      532.64       97.09
  -0.00065999   0.00065999   0.00362081          -97.09       97.09      532.64

     Energy error            =      7.2E-02
     Gradient error          =      2.6E-02
     Cell gradient error     =      6.6E-04


     number of scf cycles    =   5
     number of bfgs steps    =   4

     enthalpy old            =     -93.5171758179 Ry
     enthalpy new            =     -93.5888608736 Ry

     CASE: enthalpy_new < enthalpy_old

     new trust radius        =       0.3056729199 bohr
     new conv_thr            =            1.0E-10 Ry

     new unit-cell volume =    354.22255 a.u.^3 (    52.49037 Ang^3 )
     density =      3.35276 g/cm^3

CELL_PARAMETERS (alat=  9.45000000)
  -0.727423126   0.228000670   0.727423129
  -0.228000658   0.727423136   0.727423140
  -0.727423139   0.727423137   0.228000658

ATOMIC_POSITIONS (crystal)
Y            -0.0000000004       -0.0000000037        0.0000000132
Be            0.5000000023        0.5000000021        0.5000000044
H             0.1558965154        0.1558965199        0.1558965175
H            -0.1558965142       -0.1558965198       -0.1558965171
H             0.7170897978        0.7170898015        0.2826174420
H             0.2829101957        0.2829101929        0.7173825572
H             0.7170897992        0.2826174473        0.7170898007
H             0.2829102016        0.7173825575        0.2829101933
H             0.2826174437        0.7170898043        0.7170897991
H             0.7173825590        0.2829101980        0.2829101899



     Writing output data file ./out/ybeh8.save/
     NEW-OLD atomic charge density approx. for the potential
     extrapolated charge   20.85004, renormalised to   21.00000

     total cpu time spent up to now is     1220.8 secs

     Self-consistent Calculation

     iteration #  1     ecut=    80.00 Ry     beta= 0.30
     Davidson diagonalization with overlap
     c_bands:  2 eigenvalues not converged
     c_bands:  1 eigenvalues not converged
     c_bands:  1 eigenvalues not converged
     c_bands:  1 eigenvalues not converged
     c_bands:  1 eigenvalues not converged
     c_bands:  3 eigenvalues not converged
     c_bands:  3 eigenvalues not converged
     c_bands:  1 eigenvalues not converged
     c_bands:  1 eigenvalues not converged
     c_bands:  1 eigenvalues not converged
     c_bands:  3 eigenvalues not converged
     c_bands:  1 eigenvalues not converged
     c_bands:  2 eigenvalues not converged
     c_bands:  1 eigenvalues not converged
     c_bands:  1 eigenvalues not converged
     c_bands:  3 eigenvalues not converged
     c_bands:  1 eigenvalues not converged
     c_bands:  1 eigenvalues not converged
     c_bands:  2 eigenvalues not converged
     c_bands:  2 eigenvalues not converged
     c_bands:  1 eigenvalues not converged
     c_bands:  1 eigenvalues not converged
     c_bands:  1 eigenvalues not converged
     c_bands:  2 eigenvalues not converged
     c_bands:  1 eigenvalues not converged
     c_bands:  1 eigenvalues not converged
     c_bands:  1 eigenvalues not converged
     c_bands:  1 eigenvalues not converged
     c_bands:  2 eigenvalues not converged
     c_bands:  1 eigenvalues not converged
     c_bands:  1 eigenvalues not converged
     c_bands:  1 eigenvalues not converged
     c_bands:  2 eigenvalues not converged
     c_bands:  2 eigenvalues not converged
     c_bands:  1 eigenvalues not converged
     c_bands:  2 eigenvalues not converged
     c_bands:  1 eigenvalues not converged
     c_bands:  1 eigenvalues not converged
     c_bands:  1 eigenvalues not converged
     c_bands:  1 eigenvalues not converged
     c_bands:  1 eigenvalues not converged
     c_bands:  1 eigenvalues not converged
     c_bands:  1 eigenvalues not converged
     c_bands:  1 eigenvalues not converged
     c_bands:  1 eigenvalues not converged
     c_bands:  1 eigenvalues not converged
     c_bands:  1 eigenvalues not converged
     c_bands:  1 eigenvalues not converged
     c_bands:  1 eigenvalues not converged
     c_bands:  1 eigenvalues not converged
     c_bands:  1 eigenvalues not converged
     c_bands:  2 eigenvalues not converged
     c_bands:  1 eigenvalues not converged
     c_bands:  1 eigenvalues not converged
     c_bands:  1 eigenvalues not converged
     c_bands:  3 eigenvalues not converged
     c_bands:  2 eigenvalues not converged
     c_bands:  1 eigenvalues not converged
     c_bands:  1 eigenvalues not converged
     c_bands:  2 eigenvalues not converged
     c_bands:  3 eigenvalues not converged
     c_bands:  1 eigenvalues not converged
     c_bands:  1 eigenvalues not converged
     c_bands:  2 eigenvalues not converged
     c_bands:  3 eigenvalues not converged
     c_bands:  3 eigenvalues not converged
     c_bands:  2 eigenvalues not converged
     c_bands:  1 eigenvalues not converged
     c_bands:  1 eigenvalues not converged
     c_bands:  1 eigenvalues not converged
     c_bands:  2 eigenvalues not converged
     c_bands:  1 eigenvalues not converged
     c_bands:  2 eigenvalues not converged
     c_bands:  1 eigenvalues not converged
     c_bands:  1 eigenvalues not converged
     c_bands:  1 eigenvalues not converged
     c_bands:  1 eigenvalues not converged
     c_bands:  1 eigenvalues not converged
     c_bands:  1 eigenvalues not converged
     c_bands:  1 eigenvalues not converged
     c_bands:  1 eigenvalues not converged
     c_bands:  1 eigenvalues not converged
     c_bands:  1 eigenvalues not converged
     c_bands:  1 eigenvalues not converged
     c_bands:  2 eigenvalues not converged
     c_bands:  2 eigenvalues not converged
     c_bands:  1 eigenvalues not converged
     c_bands:  1 eigenvalues not converged
     c_bands:  1 eigenvalues not converged
     c_bands:  1 eigenvalues not converged
     c_bands:  1 eigenvalues not converged
     c_bands:  2 eigenvalues not converged
     c_bands:  2 eigenvalues not converged
     c_bands:  1 eigenvalues not converged
     c_bands:  1 eigenvalues not converged
     c_bands:  1 eigenvalues not converged
     c_bands:  2 eigenvalues not converged
     c_bands:  2 eigenvalues not converged
     c_bands:  1 eigenvalues not converged
     c_bands:  1 eigenvalues not converged
     c_bands:  2 eigenvalues not converged
     c_bands:  2 eigenvalues not converged
     c_bands:  2 eigenvalues not converged
     c_bands:  2 eigenvalues not converged
     c_bands:  1 eigenvalues not converged
     c_bands:  1 eigenvalues not converged
     c_bands:  1 eigenvalues not converged
     c_bands:  1 eigenvalues not converged
     c_bands:  1 eigenvalues not converged
     c_bands:  3 eigenvalues not converged
     c_bands:  3 eigenvalues not converged
     c_bands:  1 eigenvalues not converged
     c_bands:  2 eigenvalues not converged
     c_bands:  1 eigenvalues not converged
     c_bands:  2 eigenvalues not converged
     c_bands:  1 eigenvalues not converged
     c_bands:  1 eigenvalues not converged
     c_bands:  1 eigenvalues not converged
     c_bands:  2 eigenvalues not converged
     c_bands:  2 eigenvalues not converged
     c_bands:  3 eigenvalues not converged
     c_bands:  1 eigenvalues not converged
     c_bands:  1 eigenvalues not converged
     c_bands:  3 eigenvalues not converged
     c_bands:  2 eigenvalues not converged
     c_bands:  2 eigenvalues not converged
     c_bands:  1 eigenvalues not converged
     c_bands:  1 eigenvalues not converged
     c_bands:  1 eigenvalues not converged
     c_bands:  2 eigenvalues not converged
     c_bands:  2 eigenvalues not converged
     c_bands:  1 eigenvalues not converged
     c_bands:  1 eigenvalues not converged
     c_bands:  1 eigenvalues not converged
     c_bands:  1 eigenvalues not converged
     c_bands:  1 eigenvalues not converged
     c_bands:  1 eigenvalues not converged
     c_bands:  2 eigenvalues not converged
     c_bands:  1 eigenvalues not converged
     c_bands:  2 eigenvalues not converged
     c_bands:  1 eigenvalues not converged
     c_bands:  1 eigenvalues not converged
     c_bands:  1 eigenvalues not converged
     c_bands:  1 eigenvalues not converged
     c_bands:  1 eigenvalues not converged
     c_bands:  1 eigenvalues not converged
     c_bands:  1 eigenvalues not converged
     c_bands:  3 eigenvalues not converged
     c_bands:  1 eigenvalues not converged
     c_bands:  1 eigenvalues not converged
     c_bands:  1 eigenvalues not converged
     c_bands:  1 eigenvalues not converged
     c_bands:  3 eigenvalues not converged
     c_bands:  2 eigenvalues not converged
     c_bands:  1 eigenvalues not converged
     c_bands:  2 eigenvalues not converged
     c_bands:  1 eigenvalues not converged
     c_bands:  2 eigenvalues not converged
     c_bands:  2 eigenvalues not converged
     c_bands:  1 eigenvalues not converged
     c_bands:  1 eigenvalues not converged
     c_bands:  1 eigenvalues not converged
     c_bands:  2 eigenvalues not converged
     c_bands:  1 eigenvalues not converged
     c_bands:  3 eigenvalues not converged
     c_bands:  1 eigenvalues not converged
     c_bands:  3 eigenvalues not converged
     c_bands:  3 eigenvalues not converged
     c_bands:  3 eigenvalues not converged
     c_bands:  1 eigenvalues not converged
     c_bands:  2 eigenvalues not converged
     c_bands:  2 eigenvalues not converged
     c_bands:  2 eigenvalues not converged
     c_bands:  2 eigenvalues not converged
     c_bands:  1 eigenvalues not converged
     c_bands:  1 eigenvalues not converged
     c_bands:  1 eigenvalues not converged
     c_bands:  2 eigenvalues not converged
     c_bands:  3 eigenvalues not converged
     c_bands:  3 eigenvalues not converged
     c_bands:  2 eigenvalues not converged
     c_bands:  1 eigenvalues not converged
     c_bands:  1 eigenvalues not converged
     c_bands:  1 eigenvalues not converged
     c_bands:  2 eigenvalues not converged
     c_bands:  1 eigenvalues not converged
     c_bands:  2 eigenvalues not converged
     c_bands:  2 eigenvalues not converged
     c_bands:  2 eigenvalues not converged
     c_bands:  1 eigenvalues not converged
     c_bands:  1 eigenvalues not converged
     c_bands:  3 eigenvalues not converged
     c_bands:  1 eigenvalues not converged
     c_bands:  2 eigenvalues not converged
     c_bands:  1 eigenvalues not converged
     c_bands:  1 eigenvalues not converged
     c_bands:  1 eigenvalues not converged
     c_bands:  1 eigenvalues not converged
     c_bands:  2 eigenvalues not converged
     c_bands:  3 eigenvalues not converged
     c_bands:  1 eigenvalues not converged
     c_bands:  1 eigenvalues not converged
     c_bands:  1 eigenvalues not converged
     c_bands:  1 eigenvalues not converged
     c_bands:  3 eigenvalues not converged
     c_bands:  1 eigenvalues not converged
     c_bands:  1 eigenvalues not converged
     c_bands:  1 eigenvalues not converged
     c_bands:  3 eigenvalues not converged
     c_bands:  1 eigenvalues not converged
[...]
     c_bands:  2 eigenvalues not converged
     c_bands:  3 eigenvalues not converged
     c_bands:  2 eigenvalues not converged
     c_bands:  3 eigenvalues not converged
     c_bands:  1 eigenvalues not converged
     c_bands:  1 eigenvalues not converged
     c_bands:  2 eigenvalues not converged
     c_bands:  1 eigenvalues not converged
     c_bands:  2 eigenvalues not converged
     c_bands:  1 eigenvalues not converged
     c_bands:  2 eigenvalues not converged
     c_bands:  3 eigenvalues not converged
     c_bands:  3 eigenvalues not converged
     c_bands:  2 eigenvalues not converged
     c_bands:  2 eigenvalues not converged
     c_bands:  1 eigenvalues not converged
     c_bands:  2 eigenvalues not converged
     c_bands:  2 eigenvalues not converged
     c_bands:  2 eigenvalues not converged
     c_bands:  1 eigenvalues not converged
     c_bands:  1 eigenvalues not converged
     c_bands:  2 eigenvalues not converged
     c_bands:  1 eigenvalues not converged
     c_bands:  3 eigenvalues not converged
     c_bands:  3 eigenvalues not converged
     c_bands:  1 eigenvalues not converged
     c_bands:  2 eigenvalues not converged
     c_bands:  3 eigenvalues not converged
     c_bands:  3 eigenvalues not converged
     c_bands:  1 eigenvalues not converged
     c_bands:  1 eigenvalues not converged
     c_bands:  1 eigenvalues not converged
     c_bands:  1 eigenvalues not converged
     c_bands:  1 eigenvalues not converged
     c_bands:  1 eigenvalues not converged
     c_bands:  1 eigenvalues not converged
     c_bands:  1 eigenvalues not converged
     c_bands:  3 eigenvalues not converged
     c_bands:  2 eigenvalues not converged
     c_bands:  1 eigenvalues not converged
     c_bands:  1 eigenvalues not converged
     c_bands:  1 eigenvalues not converged
     c_bands:  1 eigenvalues not converged
     c_bands:  2 eigenvalues not converged
     c_bands:  1 eigenvalues not converged
     c_bands:  1 eigenvalues not converged
     c_bands:  2 eigenvalues not converged
     c_bands:  2 eigenvalues not converged
     c_bands:  2 eigenvalues not converged
     c_bands:  3 eigenvalues not converged
     c_bands:  2 eigenvalues not converged
     c_bands:  1 eigenvalues not converged
     c_bands:  1 eigenvalues not converged
     c_bands:  3 eigenvalues not converged
     c_bands:  2 eigenvalues not converged
     c_bands:  2 eigenvalues not converged
     c_bands:  1 eigenvalues not converged
     c_bands:  1 eigenvalues not converged
     c_bands:  2 eigenvalues not converged
     c_bands:  2 eigenvalues not converged
     c_bands:  2 eigenvalues not converged
     c_bands:  3 eigenvalues not converged
     c_bands:  1 eigenvalues not converged
     c_bands:  4 eigenvalues not converged
     c_bands:  3 eigenvalues not converged
     c_bands:  2 eigenvalues not converged
     c_bands:  1 eigenvalues not converged
     c_bands:  2 eigenvalues not converged
     c_bands:  2 eigenvalues not converged
     c_bands:  1 eigenvalues not converged
     c_bands:  1 eigenvalues not converged
     c_bands:  2 eigenvalues not converged
     c_bands:  3 eigenvalues not converged
     c_bands:  3 eigenvalues not converged
     c_bands:  1 eigenvalues not converged
     c_bands:  3 eigenvalues not converged
     c_bands:  3 eigenvalues not converged
     c_bands:  1 eigenvalues not converged
     c_bands:  2 eigenvalues not converged
     c_bands:  2 eigenvalues not converged
     c_bands:  2 eigenvalues not converged
     c_bands:  1 eigenvalues not converged
     c_bands:  1 eigenvalues not converged
     c_bands:  2 eigenvalues not converged
     c_bands:  3 eigenvalues not converged
     c_bands:  3 eigenvalues not converged
     c_bands:  1 eigenvalues not converged
     c_bands:  2 eigenvalues not converged
     c_bands:  2 eigenvalues not converged
     c_bands:  1 eigenvalues not converged
     c_bands:  1 eigenvalues not converged
     c_bands:  1 eigenvalues not converged
     c_bands:  2 eigenvalues not converged
     c_bands:  1 eigenvalues not converged
     c_bands:  2 eigenvalues not converged
     c_bands:  2 eigenvalues not converged
     c_bands:  2 eigenvalues not converged
     c_bands:  3 eigenvalues not converged
     c_bands:  2 eigenvalues not converged
     c_bands:  2 eigenvalues not converged
     c_bands:  4 eigenvalues not converged
     c_bands:  3 eigenvalues not converged
     c_bands:  1 eigenvalues not converged
     c_bands:  1 eigenvalues not converged
     c_bands:  1 eigenvalues not converged
     c_bands:  1 eigenvalues not converged
     c_bands:  1 eigenvalues not converged
     c_bands:  1 eigenvalues not converged
     c_bands:  1 eigenvalues not converged
     c_bands:  2 eigenvalues not converged
     c_bands:  1 eigenvalues not converged
     c_bands:  3 eigenvalues not converged
     c_bands:  3 eigenvalues not converged
     c_bands:  2 eigenvalues not converged
     c_bands:  1 eigenvalues not converged
     c_bands:  1 eigenvalues not converged
     c_bands:  3 eigenvalues not converged
     c_bands:  2 eigenvalues not converged
     c_bands:  4 eigenvalues not converged
     c_bands:  2 eigenvalues not converged
     c_bands:  2 eigenvalues not converged
     c_bands:  2 eigenvalues not converged
     c_bands:  2 eigenvalues not converged
     c_bands:  1 eigenvalues not converged
     c_bands:  2 eigenvalues not converged
     c_bands:  1 eigenvalues not converged
     c_bands:  1 eigenvalues not converged
     c_bands:  1 eigenvalues not converged
     c_bands:  3 eigenvalues not converged
     c_bands:  2 eigenvalues not converged
     c_bands:  3 eigenvalues not converged
     c_bands:  2 eigenvalues not converged
     c_bands:  2 eigenvalues not converged
     c_bands:  2 eigenvalues not converged
     c_bands:  2 eigenvalues not converged
     c_bands:  2 eigenvalues not converged
     c_bands:  1 eigenvalues not converged
     c_bands:  3 eigenvalues not converged
     c_bands:  1 eigenvalues not converged
     c_bands:  2 eigenvalues not converged
     c_bands:  2 eigenvalues not converged
     c_bands:  3 eigenvalues not converged
     c_bands:  1 eigenvalues not converged
     c_bands:  1 eigenvalues not converged
     c_bands:  2 eigenvalues not converged
     c_bands:  2 eigenvalues not converged
     c_bands:  1 eigenvalues not converged
     c_bands:  2 eigenvalues not converged
     c_bands:  2 eigenvalues not converged
     c_bands:  1 eigenvalues not converged
     c_bands:  1 eigenvalues not converged
     c_bands:  1 eigenvalues not converged
     c_bands:  3 eigenvalues not converged
     c_bands:  1 eigenvalues not converged
     c_bands:  1 eigenvalues not converged
     c_bands:  1 eigenvalues not converged
     c_bands:  3 eigenvalues not converged
     c_bands:  3 eigenvalues not converged
     c_bands:  2 eigenvalues not converged
     c_bands:  2 eigenvalues not converged
     c_bands:  1 eigenvalues not converged
     c_bands:  2 eigenvalues not converged
     c_bands:  1 eigenvalues not converged
     c_bands:  1 eigenvalues not converged
     c_bands:  1 eigenvalues not converged
     c_bands:  3 eigenvalues not converged
     c_bands:  2 eigenvalues not converged
     c_bands:  2 eigenvalues not converged
     c_bands:  1 eigenvalues not converged
     c_bands:  2 eigenvalues not converged
     c_bands:  2 eigenvalues not converged
     c_bands:  1 eigenvalues not converged
     c_bands:  1 eigenvalues not converged
     ethr =  1.00E-06,  avg # of iterations = 19.5

     total cpu time spent up to now is     3917.4 secs

     total energy              =     -94.98342401 Ry
     estimated scf accuracy    <       0.63732341 Ry

     iteration #  2     ecut=    80.00 Ry     beta= 0.30
     Davidson diagonalization with overlap
     ethr =  3.03E-03,  avg # of iterations =  1.4

     total cpu time spent up to now is     3942.3 secs

     total energy              =     -95.01051749 Ry
     estimated scf accuracy    <       0.10696203 Ry

     iteration #  3     ecut=    80.00 Ry     beta= 0.30
     Davidson diagonalization with overlap
     ethr =  5.09E-04,  avg # of iterations =  1.6

     total cpu time spent up to now is     3967.7 secs

     total energy              =     -95.00496286 Ry
     estimated scf accuracy    <       0.02974681 Ry

     iteration #  4     ecut=    80.00 Ry     beta= 0.30
     Davidson diagonalization with overlap
     ethr =  1.42E-04,  avg # of iterations =  3.4

     total cpu time spent up to now is     3998.9 secs

     total energy              =     -95.00914547 Ry
     estimated scf accuracy    <       0.00080743 Ry

     iteration #  5     ecut=    80.00 Ry     beta= 0.30
     Davidson diagonalization with overlap
     c_bands:  1 eigenvalues not converged
     c_bands:  1 eigenvalues not converged
     c_bands:  1 eigenvalues not converged
     c_bands:  1 eigenvalues not converged
     c_bands:  1 eigenvalues not converged
     c_bands:  1 eigenvalues not converged
     c_bands:  1 eigenvalues not converged
     c_bands:  1 eigenvalues not converged
     c_bands:  1 eigenvalues not converged
     c_bands:  1 eigenvalues not converged
     c_bands:  1 eigenvalues not converged
     c_bands:  1 eigenvalues not converged
     c_bands:  1 eigenvalues not converged
     c_bands:  1 eigenvalues not converged
     c_bands:  1 eigenvalues not converged
     c_bands:  1 eigenvalues not converged
     c_bands:  1 eigenvalues not converged
     c_bands:  1 eigenvalues not converged
     c_bands:  1 eigenvalues not converged
     c_bands:  1 eigenvalues not converged
     c_bands:  1 eigenvalues not converged
     c_bands:  1 eigenvalues not converged
     c_bands:  1 eigenvalues not converged
     c_bands:  1 eigenvalues not converged
     c_bands:  1 eigenvalues not converged
     c_bands:  1 eigenvalues not converged
     c_bands:  1 eigenvalues not converged
     c_bands:  1 eigenvalues not converged
     c_bands:  1 eigenvalues not converged
     c_bands:  1 eigenvalues not converged
     c_bands:  1 eigenvalues not converged
     c_bands:  1 eigenvalues not converged
     c_bands:  1 eigenvalues not converged
     c_bands:  1 eigenvalues not converged
     c_bands:  1 eigenvalues not converged
     c_bands:  1 eigenvalues not converged
     c_bands:  1 eigenvalues not converged
     c_bands:  1 eigenvalues not converged
     c_bands:  1 eigenvalues not converged
     c_bands:  1 eigenvalues not converged
     c_bands:  1 eigenvalues not converged
     c_bands:  1 eigenvalues not converged
     c_bands:  1 eigenvalues not converged
     c_bands:  1 eigenvalues not converged
     c_bands:  1 eigenvalues not converged
     c_bands:  1 eigenvalues not converged
     c_bands:  1 eigenvalues not converged
     c_bands:  1 eigenvalues not converged
     c_bands:  1 eigenvalues not converged
     c_bands:  1 eigenvalues not converged
     c_bands:  1 eigenvalues not converged
     c_bands:  1 eigenvalues not converged
     c_bands:  1 eigenvalues not converged
     c_bands:  1 eigenvalues not converged
     c_bands:  1 eigenvalues not converged
     c_bands:  1 eigenvalues not converged
     c_bands:  1 eigenvalues not converged
     c_bands:  1 eigenvalues not converged
     c_bands:  1 eigenvalues not converged
     c_bands:  1 eigenvalues not converged
     c_bands:  1 eigenvalues not converged
     c_bands:  1 eigenvalues not converged
     c_bands:  1 eigenvalues not converged
     c_bands:  1 eigenvalues not converged
     c_bands:  1 eigenvalues not converged
     c_bands:  1 eigenvalues not converged
     c_bands:  1 eigenvalues not converged
     ethr =  3.84E-06,  avg # of iterations = 10.6

     total cpu time spent up to now is     4050.4 secs

     total energy              =     -95.00963511 Ry
     estimated scf accuracy    <       0.00011566 Ry

     iteration #  6     ecut=    80.00 Ry     beta= 0.30
     Davidson diagonalization with overlap
     c_bands:  1 eigenvalues not converged
     c_bands:  1 eigenvalues not converged
     c_bands:  1 eigenvalues not converged
     c_bands:  1 eigenvalues not converged
     ethr =  5.51E-07,  avg # of iterations =  3.1

     total cpu time spent up to now is     4079.9 secs

     total energy              =     -95.00965953 Ry
     estimated scf accuracy    <       0.00000939 Ry

     iteration #  7     ecut=    80.00 Ry     beta= 0.30
     Davidson diagonalization with overlap
     ethr =  4.47E-08,  avg # of iterations =  3.0

     total cpu time spent up to now is     4111.8 secs

     total energy              =     -95.00966023 Ry
     estimated scf accuracy    <       0.00001113 Ry

     iteration #  8     ecut=    80.00 Ry     beta= 0.30
     Davidson diagonalization with overlap
     c_bands:  1 eigenvalues not converged
     ethr =  4.47E-08,  avg # of iterations =  2.0

     total cpu time spent up to now is     4138.4 secs

     total energy              =     -95.00966257 Ry
     estimated scf accuracy    <       0.00000040 Ry

     iteration #  9     ecut=    80.00 Ry     beta= 0.30
     Davidson diagonalization with overlap
     c_bands:  1 eigenvalues not converged
     c_bands:  1 eigenvalues not converged
     c_bands:  1 eigenvalues not converged
     ethr =  1.90E-09,  avg # of iterations =  4.8

     total cpu time spent up to now is     4171.4 secs

     total energy              =     -95.00966274 Ry
     estimated scf accuracy    <       0.00000005 Ry

     iteration # 10     ecut=    80.00 Ry     beta= 0.30
     Davidson diagonalization with overlap
     ethr =  2.38E-10,  avg # of iterations =  2.6

     total cpu time spent up to now is     4203.8 secs

     total energy              =     -95.00966275 Ry
     estimated scf accuracy    <       0.00000002 Ry

     iteration # 11     ecut=    80.00 Ry     beta= 0.30
     Davidson diagonalization with overlap
     ethr =  7.54E-11,  avg # of iterations =  2.0

     total cpu time spent up to now is     4232.4 secs

     total energy              =     -95.00966275 Ry
     estimated scf accuracy    <          6.1E-09 Ry

     iteration # 12     ecut=    80.00 Ry     beta= 0.30
     Davidson diagonalization with overlap
     ethr =  2.90E-11,  avg # of iterations =  2.1

     total cpu time spent up to now is     4259.1 secs

     total energy              =     -95.00966276 Ry
     estimated scf accuracy    <          2.1E-10 Ry

     iteration # 13     ecut=    80.00 Ry     beta= 0.30
     Davidson diagonalization with overlap
     ethr =  9.84E-13,  avg # of iterations =  5.4

     total cpu time spent up to now is     4300.4 secs

     total energy              =     -95.00966276 Ry
     estimated scf accuracy    <          5.0E-10 Ry

     iteration # 14     ecut=    80.00 Ry     beta= 0.30
     Davidson diagonalization with overlap
     ethr =  9.84E-13,  avg # of iterations =  2.1

     total cpu time spent up to now is     4329.0 secs

     total energy              =     -95.00966276 Ry
     estimated scf accuracy    <          2.3E-11 Ry

     iteration # 15     ecut=    80.00 Ry     beta= 0.30
     Davidson diagonalization with overlap
     ethr =  1.10E-13,  avg # of iterations =  3.4

     total cpu time spent up to now is     4357.4 secs

     total energy              =     -95.00966276 Ry
     estimated scf accuracy    <          7.5E-12 Ry

     iteration # 16     ecut=    80.00 Ry     beta= 0.30
     Davidson diagonalization with overlap
     ethr =  1.00E-13,  avg # of iterations =  2.1

     total cpu time spent up to now is     4384.2 secs

     End of self-consistent calculation

     Number of k-points >= 100: set verbosity='high' to print the bands.

     the Fermi energy is     9.3754 ev

!    total energy              =     -95.00966276 Ry
     estimated scf accuracy    <          1.1E-13 Ry
     smearing contrib. (-TS)   =       0.00004045 Ry
     internal energy E=F+TS    =     -95.00970321 Ry

     The total energy is F=E-TS. E is the sum of the following terms:
     one-electron contribution =     -12.82144694 Ry
     hartree contribution      =      14.74901004 Ry
     xc contribution           =     -26.04848302 Ry
     ewald contribution        =     -70.88878329 Ry

     convergence has been achieved in  16 iterations

     Forces acting on atoms (cartesian axes, Ry/au):

     atom    1 type  1   force =    -0.00008179    0.00008159    0.00008122
     atom    2 type  2   force =    -0.00001552    0.00001545    0.00001534
     atom    3 type  3   force =     0.00000668   -0.00000651   -0.00000672
     atom    4 type  3   force =     0.00001796   -0.00001821   -0.00001813
     atom    5 type  3   force =     0.00006907   -0.00006885   -0.00004816
     atom    6 type  3   force =    -0.00005735    0.00005725   -0.00000102
     atom    7 type  3   force =     0.00004827   -0.00006888   -0.00006883
     atom    8 type  3   force =     0.00000102    0.00005740    0.00005758
     atom    9 type  3   force =     0.00006906   -0.00004816   -0.00006883
     atom   10 type  3   force =    -0.00005740   -0.00000109    0.00005755

     Total force =     0.000278     Total SCF correction =     0.000000


     Computing stress (Cartesian axis) and pressure

          total   stress  (Ry/bohr**3)                   (kbar)     P=      507.58
   0.00345048  -0.00004718  -0.00004717          507.58       -6.94       -6.94
  -0.00004718   0.00345048   0.00004718           -6.94      507.58        6.94
  -0.00004717   0.00004718   0.00345048           -6.94        6.94      507.58


     Writing output data file ./out/ybeh8.save/

     init_run     :     23.42s CPU     26.29s WALL (       2 calls)
     electrons    :   3975.90s CPU   4223.01s WALL (      19 calls)
     update_pot   :     21.00s CPU     21.09s WALL (      17 calls)
     forces       :     43.07s CPU     44.68s WALL (      19 calls)
     stress       :     75.37s CPU     75.99s WALL (      19 calls)

     Called by init_run:
     wfcinit      :     20.57s CPU     23.34s WALL (       2 calls)
     potinit      :      0.89s CPU      0.90s WALL (       2 calls)
     hinit0       :      1.80s CPU      1.84s WALL (       2 calls)

     Called by electrons:
     c_bands      :   3536.99s CPU   3747.61s WALL (     252 calls)
     sum_band     :    427.13s CPU    462.58s WALL (     252 calls)
     v_of_rho     :      3.38s CPU      3.72s WALL (     269 calls)
     newd         :      8.58s CPU      9.18s WALL (     269 calls)
     mix_rho      :      0.32s CPU      0.39s WALL (     252 calls)

     Called by c_bands:
     init_us_2    :     47.91s CPU     50.46s WALL (  472192 calls)
     cegterg      :   3438.68s CPU   3645.79s WALL (  218736 calls)

     Called by *egterg:
     cdiaghg      :    228.66s CPU    236.49s WALL ( 1013181 calls)
     h_psi        :   2292.72s CPU   2472.87s WALL ( 1031409 calls)
     s_psi        :    203.04s CPU    211.09s WALL ( 1031409 calls)
     g_psi        :     15.14s CPU     15.40s WALL (  810937 calls)

     Called by h_psi:
     h_psi:calbec :    247.38s CPU    266.60s WALL ( 1031409 calls)
     vloc_psi     :   1834.98s CPU   1984.52s WALL ( 1031409 calls)
     add_vuspsi   :    200.98s CPU    212.34s WALL ( 1031409 calls)

     General routines
     calbec       :    357.70s CPU    385.15s WALL ( 1332605 calls)
     fft          :      3.34s CPU      3.85s WALL (    3953 calls)
     ffts         :      0.11s CPU      0.13s WALL (     521 calls)
     fftw         :   1924.01s CPU   2082.88s WALL (22518100 calls)
     interpolate  :      0.20s CPU      0.25s WALL (     269 calls)

     Parallel routines
     fft_scatt_xy :    188.05s CPU    203.00s WALL (22522574 calls)
     fft_scatt_yz :    766.34s CPU    835.42s WALL (22522574 calls)

     PWSCF        :      1h 9m CPU      1h13m WALL


   This run was terminated on:   7:13:23  31May2026            

=------------------------------------------------------------------------------=
   JOB DONE.
=------------------------------------------------------------------------------=
