
     Program PHONON v.6.7MaX starts on  1Jun2026 at  0:59:47 

     This program is part of the open-source Quantum ESPRESSO suite
     for quantum simulation of materials; please cite
         "P. Giannozzi et al., J. Phys.:Condens. Matter 21 395502 (2009);
         "P. Giannozzi et al., J. Phys.:Condens. Matter 29 465901 (2017);
          URL http://www.quantum-espresso.org", 
     in publications or presentations arising from this work. More details at
     http://www.quantum-espresso.org/quote

     Parallel version (MPI), running on     9 processors

     MPI processes distributed on     1 nodes
     R & G space division:  proc/nbgrp/npool/nimage =       9
     Reading input from ph.in
     Message from routine ph_restart_set_filename :
     cannot open file for reading or writing
     Message from routine ph_restart_set_filename :
     cannot open file for reading or writing
     Run is not recoverable starting from scratch

     Reading xml data from directory:

     ./out/ybeh8.save/
     file Y.pbe-spn-rrkjus_psl.1.0.0.UPF: wavefunction(s)  4S renormalized

     IMPORTANT: XC functional enforced from input :
     Exchange-correlation= PBE
                           (   1   4   3   4   0   0   0)
     Any further DFT definition will be discarded
     Please, verify this is what you really want


     Parallelization info
     --------------------
     sticks:   dense  smooth     PW     G-vecs:    dense   smooth      PW
     Min         440     174     54                14490     3662     633
     Max         441     175     55                14491     3666     635
     Sum        3963    1573    493               130417    32981    5711

     Reading collected, re-writing distributed wavefunctions


     Dynamical matrices for ( 2, 2, 2)  uniform grid of q-points
     (   8 q-points):
       N         xq(1)         xq(2)         xq(3) 
       1   0.000000000   0.000000000   0.000000000
       2   0.473280463  -0.473280463   0.636099835
       3  -0.636099835  -0.473280463  -0.473280463
       4  -0.162819372  -0.946560926   0.162819372
       5   0.473280463   0.636099835  -0.473280463
       6   0.946560926   0.162819372   0.162819372
       7  -0.162819372   0.162819372  -0.946560926
       8   0.310461091  -0.310461091  -0.310461091

     Saving dvscf to file. Distribute only q points, not irreducible represetations.

     Calculation of q =    0.0000000   0.0000000   0.0000000

     YBeH8 electron-phonon 2x2x2 q (RTSC BeH8-family — Y variant of AcBeH8 low

     bravais-lattice index     =            0
     lattice parameter (alat)  =      10.1435  a.u.
     unit-cell volume          =     341.4297 (a.u.)^3
     number of atoms/cell      =           10
     number of atomic types    =            3
     kinetic-energy cut-off    =      80.0000  Ry
     charge density cut-off    =     800.0000  Ry
     convergence threshold     =      1.0E-14
     beta                      =       0.3000
     number of iterations used =            4
     Exchange-correlation= PBE
                           (   1   4   3   4   0   0   0)


     celldm(1)=   10.14347  celldm(2)=    0.00000  celldm(3)=    0.00000
     celldm(4)=    0.00000  celldm(5)=    0.00000  celldm(6)=    0.00000

     crystal axes: (cart. coord. in units of alat)
               a(1) = ( -0.6871  0.2364  0.6871 )  
               a(2) = ( -0.2364  0.6871  0.6871 )  
               a(3) = ( -0.6871  0.6871  0.2364 )  

     reciprocal axes: (cart. coord. in units 2 pi/alat)
               b(1) = ( -0.9466 -1.2722  0.9466 )  
               b(2) = (  1.2722  0.9466  0.9466 )  
               b(3) = ( -0.9466  0.9466 -1.2722 )  


     Atoms inside the unit cell: 

     Cartesian axes

     site n.  atom      mass           positions (alat units)
        1     Y   88.9059   tau(    1) = (    0.00001   -0.00001   -0.00001  )
        2     Be   9.0122   tau(    2) = (   -0.80525    0.80525    0.80525  )
        3     H    1.0080   tau(    3) = (   -0.21209    0.21209    0.21209  )
        4     H    1.0080   tau(    4) = (    0.21209   -0.21209   -0.21209  )
        5     H    1.0080   tau(    5) = (   -0.82679    0.82679    1.05116  )
        6     H    1.0080   tau(    6) = (   -0.78372    0.78372    0.55935  )
        7     H    1.0080   tau(    7) = (   -1.05116    0.82679    0.82679  )
        8     H    1.0080   tau(    8) = (   -0.55935    0.78372    0.78372  )
        9     H    1.0080   tau(    9) = (   -0.82679    1.05116    0.82679  )
       10     H    1.0080   tau(   10) = (   -0.78372    0.55935    0.78372  )

     Computing dynamical matrix for 
                    q = (   0.0000000   0.0000000   0.0000000 )

      2 Sym.Ops. (with q -> -q+G )


     G cutoff = 2084.9862  (  14491 G-vectors)     FFT grid: ( 96, 96, 96)
     G cutoff =  833.9945  (   3666 G-vectors)  smooth grid: ( 60, 60, 60)

     number of k points=   868  Methfessel-Paxton smearing, width (Ry)=  0.0100

     PseudoPot. # 1 for Y  read from file:
     ./pseudo/Y.pbe-spn-rrkjus_psl.1.0.0.UPF
     MD5 check sum: 5fe32e6a006803c2ec2edff47948a3c8
     Pseudo is Ultrasoft + core correction, Zval = 11.0
     Generated using &quot;atomic&quot; code by A. Dal Corso  v.6.2.2
     Using radial grid of 1223 points,  6 beta functions with: 
                l(1) =   0
                l(2) =   0
                l(3) =   1
                l(4) =   1
                l(5) =   2
                l(6) =   2
     Q(r) pseudized with 0 coefficients 


     PseudoPot. # 2 for Be read from file:
     ./pseudo/Be.pbe-n-rrkjus_psl.1.0.0.UPF
     MD5 check sum: 4cdd19bfc6f73cbf9d5a541ec8c1e79e
     Pseudo is Ultrasoft + core correction, Zval =  2.0
     Generated using &quot;atomic&quot; code by A. Dal Corso  v.6.3MaX
     Using radial grid of 1041 points,  4 beta functions with: 
                l(1) =   0
                l(2) =   0
                l(3) =   1
                l(4) =   1
     Q(r) pseudized with 0 coefficients 


     PseudoPot. # 3 for H  read from file:
     ./pseudo/H.pbe-rrkjus_psl.1.0.0.UPF
     MD5 check sum: 3f4114867bd07edc7f1424d066fc1888
     Pseudo is Ultrasoft, Zval =  1.0
     Generated using &quot;atomic&quot; code by A. Dal Corso  v.6.3MaX
     Using radial grid of  929 points,  2 beta functions with: 
                l(1) =   0
                l(2) =   0
     Q(r) pseudized with 0 coefficients 


     Mode symmetry, C_1 (1)     point group:


     Atomic displacements:
     There are   30 irreducible representations

     Representation     1      1 modes -  To be done

     Representation     2      1 modes -  To be done

     Representation     3      1 modes -  To be done

     Representation     4      1 modes -  To be done

     Representation     5      1 modes -  To be done

     Representation     6      1 modes -  To be done

     Representation     7      1 modes -  To be done

     Representation     8      1 modes -  To be done

     Representation     9      1 modes -  To be done

     Representation    10      1 modes -  To be done

     Representation    11      1 modes -  To be done

     Representation    12      1 modes -  To be done

     Representation    13      1 modes -  To be done

     Representation    14      1 modes -  To be done

     Representation    15      1 modes -  To be done

     Representation    16      1 modes -  To be done

     Representation    17      1 modes -  To be done

     Representation    18      1 modes -  To be done

     Representation    19      1 modes -  To be done

     Representation    20      1 modes -  To be done

     Representation    21      1 modes -  To be done

     Representation    22      1 modes -  To be done

     Representation    23      1 modes -  To be done

     Representation    24      1 modes -  To be done

     Representation    25      1 modes -  To be done

     Representation    26      1 modes -  To be done

     Representation    27      1 modes -  To be done

     Representation    28      1 modes -  To be done

     Representation    29      1 modes -  To be done

     Representation    30      1 modes -  To be done



     Alpha used in Ewald sum =   2.8000
     PHONON       :   1m50.33s CPU   2m 7.46s WALL



     Representation #   1 mode #   1

     Self-consistent Calculation

     Pert. #  1: Fermi energy shift (Ry) =    -4.5435E-05     0.0000E+00

      iter #   1 total cpu time :   225.6 secs   av.it.:   9.9
      thresh= 1.000E-02 alpha_mix =  0.300 |ddv_scf|^2 =  1.507E-06

     Pert. #  1: Fermi energy shift (Ry) =    -2.3563E-05     0.0000E+00

      iter #   2 total cpu time :   355.7 secs   av.it.:  15.4
      thresh= 1.227E-04 alpha_mix =  0.300 |ddv_scf|^2 =  5.938E-08

     Pert. #  1: Fermi energy shift (Ry) =    -1.6558E-05     0.0000E+00

      iter #   3 total cpu time :   488.2 secs   av.it.:  15.7
      thresh= 2.437E-05 alpha_mix =  0.300 |ddv_scf|^2 =  9.831E-09

     Pert. #  1: Fermi energy shift (Ry) =    -1.3936E-05     0.0000E+00

      iter #   4 total cpu time :   630.5 secs   av.it.:  16.4
      thresh= 9.915E-06 alpha_mix =  0.300 |ddv_scf|^2 =  3.295E-10

     Pert. #  1: Fermi energy shift (Ry) =    -1.3385E-05     0.0000E+00

      iter #   5 total cpu time :   770.2 secs   av.it.:  17.0
      thresh= 1.815E-06 alpha_mix =  0.300 |ddv_scf|^2 =  8.357E-12

     Pert. #  1: Fermi energy shift (Ry) =    -1.4593E-05     0.0000E+00

      iter #   6 total cpu time :   905.6 secs   av.it.:  16.6
      thresh= 2.891E-07 alpha_mix =  0.300 |ddv_scf|^2 =  1.076E-12

     Pert. #  1: Fermi energy shift (Ry) =    -1.4162E-05     0.0000E+00

      iter #   7 total cpu time :  1046.9 secs   av.it.:  17.1
      thresh= 1.037E-07 alpha_mix =  0.300 |ddv_scf|^2 =  5.281E-14

     Pert. #  1: Fermi energy shift (Ry) =    -1.4666E-05     0.0000E+00

      iter #   8 total cpu time :  1183.9 secs   av.it.:  16.7
      thresh= 2.298E-08 alpha_mix =  0.300 |ddv_scf|^2 =  3.313E-15

     End of self-consistent calculation

     Convergence has been achieved 


     Representation #   2 mode #   2

     Self-consistent Calculation

     Pert. #  1: Fermi energy shift (Ry) =     4.5170E-05     0.0000E+00

      iter #   1 total cpu time :  1290.5 secs   av.it.:   9.9
      thresh= 1.000E-02 alpha_mix =  0.300 |ddv_scf|^2 =  1.507E-06

     Pert. #  1: Fermi energy shift (Ry) =     2.3396E-05     0.0000E+00

      iter #   2 total cpu time :  1418.1 secs   av.it.:  15.4
      thresh= 1.227E-04 alpha_mix =  0.300 |ddv_scf|^2 =  5.938E-08

     Pert. #  1: Fermi energy shift (Ry) =     1.6395E-05     0.0000E+00

      iter #   3 total cpu time :  1549.6 secs   av.it.:  15.7
      thresh= 2.437E-05 alpha_mix =  0.300 |ddv_scf|^2 =  9.831E-09

     Pert. #  1: Fermi energy shift (Ry) =     1.3780E-05     0.0000E+00

      iter #   4 total cpu time :  1684.7 secs   av.it.:  16.4
      thresh= 9.915E-06 alpha_mix =  0.300 |ddv_scf|^2 =  3.295E-10

     Pert. #  1: Fermi energy shift (Ry) =     1.3221E-05     0.0000E+00

      iter #   5 total cpu time :  1825.5 secs   av.it.:  17.0
      thresh= 1.815E-06 alpha_mix =  0.300 |ddv_scf|^2 =  8.357E-12

     Pert. #  1: Fermi energy shift (Ry) =     1.4431E-05     0.0000E+00

      iter #   6 total cpu time :  1961.0 secs   av.it.:  16.6
      thresh= 2.891E-07 alpha_mix =  0.300 |ddv_scf|^2 =  1.076E-12

     Pert. #  1: Fermi energy shift (Ry) =     1.3998E-05     0.0000E+00

      iter #   7 total cpu time :  2101.8 secs   av.it.:  17.1
      thresh= 1.037E-07 alpha_mix =  0.300 |ddv_scf|^2 =  5.281E-14

     Pert. #  1: Fermi energy shift (Ry) =     1.4504E-05     0.0000E+00

      iter #   8 total cpu time :  2238.4 secs   av.it.:  16.7
      thresh= 2.298E-08 alpha_mix =  0.300 |ddv_scf|^2 =  3.300E-15

     End of self-consistent calculation

     Convergence has been achieved 


     Representation #   3 mode #   3

     Self-consistent Calculation

     Pert. #  1: Fermi energy shift (Ry) =     4.4401E-05     0.0000E+00

      iter #   1 total cpu time :  2345.3 secs   av.it.:   9.9
      thresh= 1.000E-02 alpha_mix =  0.300 |ddv_scf|^2 =  1.507E-06

     Pert. #  1: Fermi energy shift (Ry) =     2.2998E-05     0.0000E+00

      iter #   2 total cpu time :  2473.3 secs   av.it.:  15.4
      thresh= 1.227E-04 alpha_mix =  0.300 |ddv_scf|^2 =  5.938E-08

     Pert. #  1: Fermi energy shift (Ry) =     1.6069E-05     0.0000E+00

      iter #   3 total cpu time :  2602.7 secs   av.it.:  15.7
      thresh= 2.437E-05 alpha_mix =  0.300 |ddv_scf|^2 =  9.831E-09

     Pert. #  1: Fermi energy shift (Ry) =     1.3445E-05     0.0000E+00

      iter #   4 total cpu time :  2739.5 secs   av.it.:  16.4
      thresh= 9.915E-06 alpha_mix =  0.300 |ddv_scf|^2 =  3.295E-10

     Pert. #  1: Fermi energy shift (Ry) =     1.2913E-05     0.0000E+00

      iter #   5 total cpu time :  2879.7 secs   av.it.:  17.0
      thresh= 1.815E-06 alpha_mix =  0.300 |ddv_scf|^2 =  8.357E-12

     Pert. #  1: Fermi energy shift (Ry) =     1.4082E-05     0.0000E+00

      iter #   6 total cpu time :  3021.2 secs   av.it.:  16.6
      thresh= 2.891E-07 alpha_mix =  0.300 |ddv_scf|^2 =  1.076E-12

     Pert. #  1: Fermi energy shift (Ry) =     1.3672E-05     0.0000E+00

      iter #   7 total cpu time :  3167.2 secs   av.it.:  17.1
      thresh= 1.037E-07 alpha_mix =  0.300 |ddv_scf|^2 =  5.281E-14

     Pert. #  1: Fermi energy shift (Ry) =     1.4157E-05     0.0000E+00

      iter #   8 total cpu time :  3309.5 secs   av.it.:  16.7
      thresh= 2.298E-08 alpha_mix =  0.300 |ddv_scf|^2 =  3.291E-15

     End of self-consistent calculation

     Convergence has been achieved 


     Representation #   4 mode #   4

     Self-consistent Calculation

     Pert. #  1: Fermi energy shift (Ry) =    -8.1375E-06     0.0000E+00

      iter #   1 total cpu time :  3392.0 secs   av.it.:   6.1
      thresh= 1.000E-02 alpha_mix =  0.300 |ddv_scf|^2 =  3.547E-08

     Pert. #  1: Fermi energy shift (Ry) =    -5.7879E-06     0.0000E+00

      iter #   2 total cpu time :  3522.4 secs   av.it.:  15.0
      thresh= 1.883E-05 alpha_mix =  0.300 |ddv_scf|^2 =  2.156E-09

     Pert. #  1: Fermi energy shift (Ry) =    -4.9887E-06     0.0000E+00

      iter #   3 total cpu time :  3653.3 secs   av.it.:  15.0
      thresh= 4.643E-06 alpha_mix =  0.300 |ddv_scf|^2 =  6.682E-10

     Pert. #  1: Fermi energy shift (Ry) =    -4.0060E-06     0.0000E+00

      iter #   4 total cpu time :  3788.7 secs   av.it.:  15.9
      thresh= 2.585E-06 alpha_mix =  0.300 |ddv_scf|^2 =  4.876E-11

     Pert. #  1: Fermi energy shift (Ry) =    -4.0305E-06     0.0000E+00

      iter #   5 total cpu time :  3925.8 secs   av.it.:  15.9
      thresh= 6.983E-07 alpha_mix =  0.300 |ddv_scf|^2 =  2.686E-13

     Pert. #  1: Fermi energy shift (Ry) =    -4.1206E-06     0.0000E+00

      iter #   6 total cpu time :  4065.6 secs   av.it.:  16.2
      thresh= 5.183E-08 alpha_mix =  0.300 |ddv_scf|^2 =  4.099E-14

     Pert. #  1: Fermi energy shift (Ry) =    -4.0886E-06     0.0000E+00

      iter #   7 total cpu time :  4207.7 secs   av.it.:  16.5
      thresh= 2.025E-08 alpha_mix =  0.300 |ddv_scf|^2 =  3.694E-15

     End of self-consistent calculation

     Convergence has been achieved 


     Representation #   5 mode #   5

     Self-consistent Calculation

     Pert. #  1: Fermi energy shift (Ry) =     8.1347E-06     0.0000E+00

      iter #   1 total cpu time :  4290.1 secs   av.it.:   6.1
      thresh= 1.000E-02 alpha_mix =  0.300 |ddv_scf|^2 =  3.547E-08

     Pert. #  1: Fermi energy shift (Ry) =     5.7862E-06     0.0000E+00

      iter #   2 total cpu time :  4421.3 secs   av.it.:  15.0
      thresh= 1.883E-05 alpha_mix =  0.300 |ddv_scf|^2 =  2.156E-09

     Pert. #  1: Fermi energy shift (Ry) =     4.9906E-06     0.0000E+00

      iter #   3 total cpu time :  4551.9 secs   av.it.:  15.0
      thresh= 4.643E-06 alpha_mix =  0.300 |ddv_scf|^2 =  6.682E-10

     Pert. #  1: Fermi energy shift (Ry) =     4.0075E-06     0.0000E+00

      iter #   4 total cpu time :  4687.6 secs   av.it.:  15.9
      thresh= 2.585E-06 alpha_mix =  0.300 |ddv_scf|^2 =  4.876E-11

     Pert. #  1: Fermi energy shift (Ry) =     4.0362E-06     0.0000E+00

      iter #   5 total cpu time :  4824.9 secs   av.it.:  15.9
      thresh= 6.983E-07 alpha_mix =  0.300 |ddv_scf|^2 =  2.686E-13

     Pert. #  1: Fermi energy shift (Ry) =     4.1225E-06     0.0000E+00

      iter #   6 total cpu time :  4964.1 secs   av.it.:  16.2
      thresh= 5.183E-08 alpha_mix =  0.300 |ddv_scf|^2 =  4.099E-14

     Pert. #  1: Fermi energy shift (Ry) =     4.0924E-06     0.0000E+00

      iter #   7 total cpu time :  5106.0 secs   av.it.:  16.5
      thresh= 2.025E-08 alpha_mix =  0.300 |ddv_scf|^2 =  3.694E-15

     End of self-consistent calculation

     Convergence has been achieved 


     Representation #   6 mode #   6

     Self-consistent Calculation

     Pert. #  1: Fermi energy shift (Ry) =     8.1064E-06     0.0000E+00

      iter #   1 total cpu time :  5189.0 secs   av.it.:   6.1
      thresh= 1.000E-02 alpha_mix =  0.300 |ddv_scf|^2 =  3.547E-08

     Pert. #  1: Fermi energy shift (Ry) =     5.8045E-06     0.0000E+00

      iter #   2 total cpu time :  5320.3 secs   av.it.:  15.0
      thresh= 1.883E-05 alpha_mix =  0.300 |ddv_scf|^2 =  2.156E-09

     Pert. #  1: Fermi energy shift (Ry) =     5.0142E-06     0.0000E+00

      iter #   3 total cpu time :  5452.4 secs   av.it.:  15.0
      thresh= 4.643E-06 alpha_mix =  0.300 |ddv_scf|^2 =  6.682E-10

     Pert. #  1: Fermi energy shift (Ry) =     4.0297E-06     0.0000E+00

      iter #   4 total cpu time :  5590.7 secs   av.it.:  15.9
      thresh= 2.585E-06 alpha_mix =  0.300 |ddv_scf|^2 =  4.876E-11

     Pert. #  1: Fermi energy shift (Ry) =     4.0660E-06     0.0000E+00

      iter #   5 total cpu time :  5730.9 secs   av.it.:  15.9
      thresh= 6.983E-07 alpha_mix =  0.300 |ddv_scf|^2 =  2.685E-13

     Pert. #  1: Fermi energy shift (Ry) =     4.1454E-06     0.0000E+00

      iter #   6 total cpu time :  5871.3 secs   av.it.:  16.2
      thresh= 5.182E-08 alpha_mix =  0.300 |ddv_scf|^2 =  4.097E-14

     Pert. #  1: Fermi energy shift (Ry) =     4.1186E-06     0.0000E+00

      iter #   7 total cpu time :  6013.7 secs   av.it.:  16.5
      thresh= 2.024E-08 alpha_mix =  0.300 |ddv_scf|^2 =  3.694E-15

     End of self-consistent calculation

     Convergence has been achieved 


     Representation #   7 mode #   7

     Self-consistent Calculation

     Pert. #  1: Fermi energy shift (Ry) =    -2.2869E-02     0.0000E+00

      iter #   1 total cpu time :  6094.7 secs   av.it.:   5.9
      thresh= 1.000E-02 alpha_mix =  0.300 |ddv_scf|^2 =  1.448E-08

     Pert. #  1: Fermi energy shift (Ry) =    -7.7838E-03     0.0000E+00

      iter #   2 total cpu time :  6232.9 secs   av.it.:  16.1
      thresh= 1.203E-05 alpha_mix =  0.300 |ddv_scf|^2 =  7.712E-10

     Pert. #  1: Fermi energy shift (Ry) =    -7.5777E-03     0.0000E+00

      iter #   3 total cpu time :  6373.1 secs   av.it.:  16.2
      thresh= 2.777E-06 alpha_mix =  0.300 |ddv_scf|^2 =  1.989E-10

     Pert. #  1: Fermi energy shift (Ry) =    -5.4494E-03     0.0000E+00

      iter #   4 total cpu time :  6515.2 secs   av.it.:  16.5
      thresh= 1.410E-06 alpha_mix =  0.300 |ddv_scf|^2 =  3.164E-11

     Pert. #  1: Fermi energy shift (Ry) =    -4.5521E-03     0.0000E+00

      iter #   5 total cpu time :  6658.9 secs   av.it.:  16.9
      thresh= 5.625E-07 alpha_mix =  0.300 |ddv_scf|^2 =  2.678E-12

     Pert. #  1: Fermi energy shift (Ry) =    -4.4488E-03     0.0000E+00

      iter #   6 total cpu time :  6804.8 secs   av.it.:  17.2
      thresh= 1.636E-07 alpha_mix =  0.300 |ddv_scf|^2 =  1.004E-13

     Pert. #  1: Fermi energy shift (Ry) =    -4.4880E-03     0.0000E+00

      iter #   7 total cpu time :  6942.2 secs   av.it.:  15.8
      thresh= 3.169E-08 alpha_mix =  0.300 |ddv_scf|^2 =  3.541E-14

     Pert. #  1: Fermi energy shift (Ry) =    -4.5411E-03     0.0000E+00

      iter #   8 total cpu time :  7094.0 secs   av.it.:  17.2
      thresh= 1.882E-08 alpha_mix =  0.300 |ddv_scf|^2 =  1.055E-15

     End of self-consistent calculation

     Convergence has been achieved 


     Representation #   8 mode #   8

     Self-consistent Calculation

     Pert. #  1: Fermi energy shift (Ry) =     2.2868E-02     0.0000E+00

      iter #   1 total cpu time :  7176.6 secs   av.it.:   5.9
      thresh= 1.000E-02 alpha_mix =  0.300 |ddv_scf|^2 =  1.448E-08

     Pert. #  1: Fermi energy shift (Ry) =     7.7837E-03     0.0000E+00

      iter #   2 total cpu time :  7316.6 secs   av.it.:  16.1
      thresh= 1.203E-05 alpha_mix =  0.300 |ddv_scf|^2 =  7.713E-10

     Pert. #  1: Fermi energy shift (Ry) =     7.5777E-03     0.0000E+00

      iter #   3 total cpu time :  7457.3 secs   av.it.:  16.2
      thresh= 2.777E-06 alpha_mix =  0.300 |ddv_scf|^2 =  1.989E-10

     Pert. #  1: Fermi energy shift (Ry) =     5.4494E-03     0.0000E+00

      iter #   4 total cpu time :  7599.0 secs   av.it.:  16.5
      thresh= 1.410E-06 alpha_mix =  0.300 |ddv_scf|^2 =  3.165E-11

     Pert. #  1: Fermi energy shift (Ry) =     4.5521E-03     0.0000E+00

      iter #   5 total cpu time :  7745.2 secs   av.it.:  16.9
      thresh= 5.625E-07 alpha_mix =  0.300 |ddv_scf|^2 =  2.678E-12

     Pert. #  1: Fermi energy shift (Ry) =     4.4487E-03     0.0000E+00

      iter #   6 total cpu time :  7892.7 secs   av.it.:  17.2
      thresh= 1.636E-07 alpha_mix =  0.300 |ddv_scf|^2 =  1.004E-13

     Pert. #  1: Fermi energy shift (Ry) =     4.4880E-03     0.0000E+00

      iter #   7 total cpu time :  8031.0 secs   av.it.:  15.8
      thresh= 3.169E-08 alpha_mix =  0.300 |ddv_scf|^2 =  3.541E-14

     Pert. #  1: Fermi energy shift (Ry) =     4.5411E-03     0.0000E+00

      iter #   8 total cpu time :  8177.2 secs   av.it.:  17.2
      thresh= 1.882E-08 alpha_mix =  0.300 |ddv_scf|^2 =  1.054E-15

     End of self-consistent calculation

     Convergence has been achieved 


     Representation #   9 mode #   9

     Self-consistent Calculation

     Pert. #  1: Fermi energy shift (Ry) =     2.2869E-02     0.0000E+00

      iter #   1 total cpu time :  8258.4 secs   av.it.:   5.9
      thresh= 1.000E-02 alpha_mix =  0.300 |ddv_scf|^2 =  1.448E-08

     Pert. #  1: Fermi energy shift (Ry) =     7.7842E-03     0.0000E+00

      iter #   2 total cpu time :  8398.3 secs   av.it.:  16.1
      thresh= 1.203E-05 alpha_mix =  0.300 |ddv_scf|^2 =  7.711E-10

     Pert. #  1: Fermi energy shift (Ry) =     7.5775E-03     0.0000E+00

      iter #   3 total cpu time :  8538.7 secs   av.it.:  16.2
      thresh= 2.777E-06 alpha_mix =  0.300 |ddv_scf|^2 =  1.989E-10

     Pert. #  1: Fermi energy shift (Ry) =     5.4491E-03     0.0000E+00

      iter #   4 total cpu time :  8683.2 secs   av.it.:  16.5
      thresh= 1.410E-06 alpha_mix =  0.300 |ddv_scf|^2 =  3.164E-11

     Pert. #  1: Fermi energy shift (Ry) =     4.5520E-03     0.0000E+00

      iter #   5 total cpu time :  8829.8 secs   av.it.:  16.9
      thresh= 5.625E-07 alpha_mix =  0.300 |ddv_scf|^2 =  2.678E-12

     Pert. #  1: Fermi energy shift (Ry) =     4.4487E-03     0.0000E+00

      iter #   6 total cpu time :  8978.0 secs   av.it.:  17.2
      thresh= 1.636E-07 alpha_mix =  0.300 |ddv_scf|^2 =  1.004E-13

     Pert. #  1: Fermi energy shift (Ry) =     4.4879E-03     0.0000E+00

      iter #   7 total cpu time :  9114.1 secs   av.it.:  15.8
      thresh= 3.169E-08 alpha_mix =  0.300 |ddv_scf|^2 =  3.541E-14

     Pert. #  1: Fermi energy shift (Ry) =     4.5410E-03     0.0000E+00

      iter #   8 total cpu time :  9261.5 secs   av.it.:  17.2
      thresh= 1.882E-08 alpha_mix =  0.300 |ddv_scf|^2 =  1.055E-15

     End of self-consistent calculation

     Convergence has been achieved 


     Representation #  10 mode #  10

     Self-consistent Calculation

     Pert. #  1: Fermi energy shift (Ry) =     2.2877E-02     0.0000E+00

      iter #   1 total cpu time :  9342.4 secs   av.it.:   5.9
      thresh= 1.000E-02 alpha_mix =  0.300 |ddv_scf|^2 =  1.448E-08

     Pert. #  1: Fermi energy shift (Ry) =     7.7859E-03     0.0000E+00

      iter #   2 total cpu time :  9481.3 secs   av.it.:  16.1
      thresh= 1.203E-05 alpha_mix =  0.300 |ddv_scf|^2 =  7.713E-10

     Pert. #  1: Fermi energy shift (Ry) =     7.5798E-03     0.0000E+00

      iter #   3 total cpu time :  9621.3 secs   av.it.:  16.2
      thresh= 2.777E-06 alpha_mix =  0.300 |ddv_scf|^2 =  1.989E-10

     Pert. #  1: Fermi energy shift (Ry) =     5.4510E-03     0.0000E+00

      iter #   4 total cpu time :  9761.6 secs   av.it.:  16.5
      thresh= 1.410E-06 alpha_mix =  0.300 |ddv_scf|^2 =  3.164E-11

     Pert. #  1: Fermi energy shift (Ry) =     4.5536E-03     0.0000E+00

      iter #   5 total cpu time :  9906.1 secs   av.it.:  16.9
      thresh= 5.625E-07 alpha_mix =  0.300 |ddv_scf|^2 =  2.678E-12

     Pert. #  1: Fermi energy shift (Ry) =     4.4503E-03     0.0000E+00

      iter #   6 total cpu time : 10054.2 secs   av.it.:  17.2
      thresh= 1.636E-07 alpha_mix =  0.300 |ddv_scf|^2 =  1.004E-13

     Pert. #  1: Fermi energy shift (Ry) =     4.4896E-03     0.0000E+00

      iter #   7 total cpu time : 10193.5 secs   av.it.:  15.8
      thresh= 3.169E-08 alpha_mix =  0.300 |ddv_scf|^2 =  3.541E-14

     Pert. #  1: Fermi energy shift (Ry) =     4.5427E-03     0.0000E+00

      iter #   8 total cpu time : 10338.7 secs   av.it.:  17.2
      thresh= 1.882E-08 alpha_mix =  0.300 |ddv_scf|^2 =  1.055E-15

     End of self-consistent calculation

     Convergence has been achieved 


     Representation #  11 mode #  11

     Self-consistent Calculation

     Pert. #  1: Fermi energy shift (Ry) =    -2.2877E-02     0.0000E+00

      iter #   1 total cpu time : 10419.0 secs   av.it.:   5.9
      thresh= 1.000E-02 alpha_mix =  0.300 |ddv_scf|^2 =  1.448E-08

     Pert. #  1: Fermi energy shift (Ry) =    -7.7858E-03     0.0000E+00

      iter #   2 total cpu time : 10555.8 secs   av.it.:  16.1
      thresh= 1.203E-05 alpha_mix =  0.300 |ddv_scf|^2 =  7.713E-10

     Pert. #  1: Fermi energy shift (Ry) =    -7.5798E-03     0.0000E+00

      iter #   3 total cpu time : 10693.0 secs   av.it.:  16.2
      thresh= 2.777E-06 alpha_mix =  0.300 |ddv_scf|^2 =  1.989E-10

     Pert. #  1: Fermi energy shift (Ry) =    -5.4511E-03     0.0000E+00

      iter #   4 total cpu time : 10829.8 secs   av.it.:  16.5
      thresh= 1.410E-06 alpha_mix =  0.300 |ddv_scf|^2 =  3.165E-11

     Pert. #  1: Fermi energy shift (Ry) =    -4.5536E-03     0.0000E+00

      iter #   5 total cpu time : 10969.4 secs   av.it.:  16.9
      thresh= 5.625E-07 alpha_mix =  0.300 |ddv_scf|^2 =  2.678E-12

     Pert. #  1: Fermi energy shift (Ry) =    -4.4503E-03     0.0000E+00

      iter #   6 total cpu time : 11113.8 secs   av.it.:  17.2
      thresh= 1.636E-07 alpha_mix =  0.300 |ddv_scf|^2 =  1.004E-13

     Pert. #  1: Fermi energy shift (Ry) =    -4.4896E-03     0.0000E+00

      iter #   7 total cpu time : 11247.5 secs   av.it.:  15.8
      thresh= 3.169E-08 alpha_mix =  0.300 |ddv_scf|^2 =  3.541E-14

     Pert. #  1: Fermi energy shift (Ry) =    -4.5427E-03     0.0000E+00

      iter #   8 total cpu time : 11391.3 secs   av.it.:  17.2
      thresh= 1.882E-08 alpha_mix =  0.300 |ddv_scf|^2 =  1.055E-15

     End of self-consistent calculation

     Convergence has been achieved 


     Representation #  12 mode #  12

     Self-consistent Calculation

     Pert. #  1: Fermi energy shift (Ry) =    -2.2877E-02     0.0000E+00

      iter #   1 total cpu time : 11471.2 secs   av.it.:   5.9
      thresh= 1.000E-02 alpha_mix =  0.300 |ddv_scf|^2 =  1.448E-08

     Pert. #  1: Fermi energy shift (Ry) =    -7.7865E-03     0.0000E+00

      iter #   2 total cpu time : 11606.8 secs   av.it.:  16.1
      thresh= 1.203E-05 alpha_mix =  0.300 |ddv_scf|^2 =  7.712E-10

     Pert. #  1: Fermi energy shift (Ry) =    -7.5797E-03     0.0000E+00

      iter #   3 total cpu time : 11744.8 secs   av.it.:  16.2
      thresh= 2.777E-06 alpha_mix =  0.300 |ddv_scf|^2 =  1.989E-10

     Pert. #  1: Fermi energy shift (Ry) =    -5.4509E-03     0.0000E+00

      iter #   4 total cpu time : 11883.6 secs   av.it.:  16.5
      thresh= 1.410E-06 alpha_mix =  0.300 |ddv_scf|^2 =  3.164E-11

     Pert. #  1: Fermi energy shift (Ry) =    -4.5537E-03     0.0000E+00

      iter #   5 total cpu time : 12026.3 secs   av.it.:  16.9
      thresh= 5.625E-07 alpha_mix =  0.300 |ddv_scf|^2 =  2.678E-12

     Pert. #  1: Fermi energy shift (Ry) =    -4.4504E-03     0.0000E+00

      iter #   6 total cpu time : 12171.7 secs   av.it.:  17.2
      thresh= 1.636E-07 alpha_mix =  0.300 |ddv_scf|^2 =  1.004E-13

     Pert. #  1: Fermi energy shift (Ry) =    -4.4897E-03     0.0000E+00

      iter #   7 total cpu time : 12304.9 secs   av.it.:  15.8
      thresh= 3.169E-08 alpha_mix =  0.300 |ddv_scf|^2 =  3.541E-14

     Pert. #  1: Fermi energy shift (Ry) =    -4.5427E-03     0.0000E+00

      iter #   8 total cpu time : 12450.6 secs   av.it.:  17.2
      thresh= 1.882E-08 alpha_mix =  0.300 |ddv_scf|^2 =  1.055E-15

     End of self-consistent calculation

     Convergence has been achieved 


     Representation #  13 mode #  13

     Self-consistent Calculation

     Pert. #  1: Fermi energy shift (Ry) =     2.2272E-02     0.0000E+00

      iter #   1 total cpu time : 12530.6 secs   av.it.:   5.8
      thresh= 1.000E-02 alpha_mix =  0.300 |ddv_scf|^2 =  2.019E-08

     Pert. #  1: Fermi energy shift (Ry) =    -2.2031E-04     0.0000E+00

      iter #   2 total cpu time : 12665.3 secs   av.it.:  16.0
      thresh= 1.421E-05 alpha_mix =  0.300 |ddv_scf|^2 =  1.279E-09

     Pert. #  1: Fermi energy shift (Ry) =     2.3226E-03     0.0000E+00

      iter #   3 total cpu time : 12802.6 secs   av.it.:  16.3
      thresh= 3.576E-06 alpha_mix =  0.300 |ddv_scf|^2 =  3.478E-10

     Pert. #  1: Fermi energy shift (Ry) =     1.1822E-03     0.0000E+00

      iter #   4 total cpu time : 12947.3 secs   av.it.:  17.1
      thresh= 1.865E-06 alpha_mix =  0.300 |ddv_scf|^2 =  1.493E-11

     Pert. #  1: Fermi energy shift (Ry) =     1.2732E-03     0.0000E+00

      iter #   5 total cpu time : 13089.9 secs   av.it.:  17.0
      thresh= 3.864E-07 alpha_mix =  0.300 |ddv_scf|^2 =  2.290E-12

     Pert. #  1: Fermi energy shift (Ry) =     1.4666E-03     0.0000E+00

      iter #   6 total cpu time : 13235.8 secs   av.it.:  17.6
      thresh= 1.513E-07 alpha_mix =  0.300 |ddv_scf|^2 =  9.153E-14

     Pert. #  1: Fermi energy shift (Ry) =     1.4933E-03     0.0000E+00

      iter #   7 total cpu time : 13383.3 secs   av.it.:  16.0
      thresh= 3.025E-08 alpha_mix =  0.300 |ddv_scf|^2 =  3.229E-14

     Pert. #  1: Fermi energy shift (Ry) =     1.5108E-03     0.0000E+00

      iter #   8 total cpu time : 13531.6 secs   av.it.:  17.2
      thresh= 1.797E-08 alpha_mix =  0.300 |ddv_scf|^2 =  1.146E-15

     End of self-consistent calculation

     Convergence has been achieved 


     Representation #  14 mode #  14

     Self-consistent Calculation

     Pert. #  1: Fermi energy shift (Ry) =    -2.2272E-02     0.0000E+00

      iter #   1 total cpu time : 13612.2 secs   av.it.:   5.8
      thresh= 1.000E-02 alpha_mix =  0.300 |ddv_scf|^2 =  2.019E-08

     Pert. #  1: Fermi energy shift (Ry) =     2.2042E-04     0.0000E+00

      iter #   2 total cpu time : 13744.3 secs   av.it.:  16.0
      thresh= 1.421E-05 alpha_mix =  0.300 |ddv_scf|^2 =  1.279E-09

     Pert. #  1: Fermi energy shift (Ry) =    -2.3225E-03     0.0000E+00

      iter #   3 total cpu time : 13878.1 secs   av.it.:  16.3
      thresh= 3.576E-06 alpha_mix =  0.300 |ddv_scf|^2 =  3.478E-10

     Pert. #  1: Fermi energy shift (Ry) =    -1.1822E-03     0.0000E+00

      iter #   4 total cpu time : 14019.8 secs   av.it.:  17.1
      thresh= 1.865E-06 alpha_mix =  0.300 |ddv_scf|^2 =  1.493E-11

     Pert. #  1: Fermi energy shift (Ry) =    -1.2732E-03     0.0000E+00

      iter #   5 total cpu time : 14158.1 secs   av.it.:  17.0
      thresh= 3.864E-07 alpha_mix =  0.300 |ddv_scf|^2 =  2.290E-12

     Pert. #  1: Fermi energy shift (Ry) =    -1.4666E-03     0.0000E+00

      iter #   6 total cpu time : 14300.7 secs   av.it.:  17.6
      thresh= 1.513E-07 alpha_mix =  0.300 |ddv_scf|^2 =  9.153E-14

     Pert. #  1: Fermi energy shift (Ry) =    -1.4933E-03     0.0000E+00

      iter #   7 total cpu time : 14432.1 secs   av.it.:  16.0
      thresh= 3.025E-08 alpha_mix =  0.300 |ddv_scf|^2 =  3.229E-14

     Pert. #  1: Fermi energy shift (Ry) =    -1.5108E-03     0.0000E+00

      iter #   8 total cpu time : 14572.6 secs   av.it.:  17.2
      thresh= 1.797E-08 alpha_mix =  0.300 |ddv_scf|^2 =  1.146E-15

     End of self-consistent calculation

     Convergence has been achieved 


     Representation #  15 mode #  15

     Self-consistent Calculation

     Pert. #  1: Fermi energy shift (Ry) =    -2.0164E-02     0.0000E+00

      iter #   1 total cpu time : 14655.5 secs   av.it.:   6.6
      thresh= 1.000E-02 alpha_mix =  0.300 |ddv_scf|^2 =  3.243E-08

     Pert. #  1: Fermi energy shift (Ry) =     6.6733E-03     0.0000E+00

      iter #   2 total cpu time : 14787.1 secs   av.it.:  16.0
      thresh= 1.801E-05 alpha_mix =  0.300 |ddv_scf|^2 =  1.874E-09

     Pert. #  1: Fermi energy shift (Ry) =     2.3406E-03     0.0000E+00

      iter #   3 total cpu time : 14919.8 secs   av.it.:  16.2
      thresh= 4.329E-06 alpha_mix =  0.300 |ddv_scf|^2 =  3.747E-10

     Pert. #  1: Fermi energy shift (Ry) =     2.4772E-03     0.0000E+00

      iter #   4 total cpu time : 15062.2 secs   av.it.:  17.0
      thresh= 1.936E-06 alpha_mix =  0.300 |ddv_scf|^2 =  2.273E-11

     Pert. #  1: Fermi energy shift (Ry) =     2.3539E-03     0.0000E+00

      iter #   5 total cpu time : 15205.4 secs   av.it.:  17.2
      thresh= 4.768E-07 alpha_mix =  0.300 |ddv_scf|^2 =  3.468E-12

     Pert. #  1: Fermi energy shift (Ry) =     2.3347E-03     0.0000E+00

      iter #   6 total cpu time : 15349.2 secs   av.it.:  17.5
      thresh= 1.862E-07 alpha_mix =  0.300 |ddv_scf|^2 =  1.055E-13

     Pert. #  1: Fermi energy shift (Ry) =     2.3096E-03     0.0000E+00

      iter #   7 total cpu time : 15481.9 secs   av.it.:  15.8
      thresh= 3.248E-08 alpha_mix =  0.300 |ddv_scf|^2 =  3.919E-14

     Pert. #  1: Fermi energy shift (Ry) =     2.2850E-03     0.0000E+00

      iter #   8 total cpu time : 15623.0 secs   av.it.:  17.2
      thresh= 1.980E-08 alpha_mix =  0.300 |ddv_scf|^2 =  1.320E-15

     End of self-consistent calculation

     Convergence has been achieved 


     Representation #  16 mode #  16

     Self-consistent Calculation

     Pert. #  1: Fermi energy shift (Ry) =    -2.2263E-02     0.0000E+00

      iter #   1 total cpu time : 15700.9 secs   av.it.:   5.8
      thresh= 1.000E-02 alpha_mix =  0.300 |ddv_scf|^2 =  2.019E-08

     Pert. #  1: Fermi energy shift (Ry) =     2.2609E-04     0.0000E+00

      iter #   2 total cpu time : 15836.2 secs   av.it.:  16.0
      thresh= 1.421E-05 alpha_mix =  0.300 |ddv_scf|^2 =  1.278E-09

     Pert. #  1: Fermi energy shift (Ry) =    -2.3173E-03     0.0000E+00

      iter #   3 total cpu time : 15971.5 secs   av.it.:  16.3
      thresh= 3.576E-06 alpha_mix =  0.300 |ddv_scf|^2 =  3.478E-10

     Pert. #  1: Fermi energy shift (Ry) =    -1.1778E-03     0.0000E+00

      iter #   4 total cpu time : 16112.6 secs   av.it.:  17.1
      thresh= 1.865E-06 alpha_mix =  0.300 |ddv_scf|^2 =  1.494E-11

     Pert. #  1: Fermi energy shift (Ry) =    -1.2688E-03     0.0000E+00

      iter #   5 total cpu time : 16249.8 secs   av.it.:  17.0
      thresh= 3.865E-07 alpha_mix =  0.300 |ddv_scf|^2 =  2.290E-12

     Pert. #  1: Fermi energy shift (Ry) =    -1.4622E-03     0.0000E+00

      iter #   6 total cpu time : 16392.1 secs   av.it.:  17.6
      thresh= 1.513E-07 alpha_mix =  0.300 |ddv_scf|^2 =  9.152E-14

     Pert. #  1: Fermi energy shift (Ry) =    -1.4889E-03     0.0000E+00

      iter #   7 total cpu time : 16523.4 secs   av.it.:  16.0
      thresh= 3.025E-08 alpha_mix =  0.300 |ddv_scf|^2 =  3.229E-14

     Pert. #  1: Fermi energy shift (Ry) =    -1.5064E-03     0.0000E+00

      iter #   8 total cpu time : 16662.9 secs   av.it.:  17.2
      thresh= 1.797E-08 alpha_mix =  0.300 |ddv_scf|^2 =  1.146E-15

     End of self-consistent calculation

     Convergence has been achieved 


     Representation #  17 mode #  17

     Self-consistent Calculation

     Pert. #  1: Fermi energy shift (Ry) =     2.2263E-02     0.0000E+00

      iter #   1 total cpu time : 16740.0 secs   av.it.:   5.8
      thresh= 1.000E-02 alpha_mix =  0.300 |ddv_scf|^2 =  2.019E-08

     Pert. #  1: Fermi energy shift (Ry) =    -2.2618E-04     0.0000E+00

      iter #   2 total cpu time : 16871.3 secs   av.it.:  16.0
      thresh= 1.421E-05 alpha_mix =  0.300 |ddv_scf|^2 =  1.279E-09

     Pert. #  1: Fermi energy shift (Ry) =     2.3172E-03     0.0000E+00

      iter #   3 total cpu time : 17005.4 secs   av.it.:  16.3
      thresh= 3.576E-06 alpha_mix =  0.300 |ddv_scf|^2 =  3.478E-10

     Pert. #  1: Fermi energy shift (Ry) =     1.1778E-03     0.0000E+00

      iter #   4 total cpu time : 17145.1 secs   av.it.:  17.1
      thresh= 1.865E-06 alpha_mix =  0.300 |ddv_scf|^2 =  1.494E-11

     Pert. #  1: Fermi energy shift (Ry) =     1.2688E-03     0.0000E+00

      iter #   5 total cpu time : 17282.8 secs   av.it.:  17.0
      thresh= 3.865E-07 alpha_mix =  0.300 |ddv_scf|^2 =  2.290E-12

     Pert. #  1: Fermi energy shift (Ry) =     1.4622E-03     0.0000E+00

      iter #   6 total cpu time : 17425.0 secs   av.it.:  17.6
      thresh= 1.513E-07 alpha_mix =  0.300 |ddv_scf|^2 =  9.152E-14

     Pert. #  1: Fermi energy shift (Ry) =     1.4889E-03     0.0000E+00

      iter #   7 total cpu time : 17556.5 secs   av.it.:  16.0
      thresh= 3.025E-08 alpha_mix =  0.300 |ddv_scf|^2 =  3.229E-14

     Pert. #  1: Fermi energy shift (Ry) =     1.5064E-03     0.0000E+00

      iter #   8 total cpu time : 17696.0 secs   av.it.:  17.2
      thresh= 1.797E-08 alpha_mix =  0.300 |ddv_scf|^2 =  1.146E-15

     End of self-consistent calculation

     Convergence has been achieved 


     Representation #  18 mode #  18

     Self-consistent Calculation

     Pert. #  1: Fermi energy shift (Ry) =     2.0145E-02     0.0000E+00

      iter #   1 total cpu time : 17779.7 secs   av.it.:   6.6
      thresh= 1.000E-02 alpha_mix =  0.300 |ddv_scf|^2 =  3.243E-08

     Pert. #  1: Fermi energy shift (Ry) =    -6.6853E-03     0.0000E+00

      iter #   2 total cpu time : 17914.7 secs   av.it.:  16.0
      thresh= 1.801E-05 alpha_mix =  0.300 |ddv_scf|^2 =  1.874E-09

     Pert. #  1: Fermi energy shift (Ry) =    -2.3510E-03     0.0000E+00

      iter #   3 total cpu time : 18047.0 secs   av.it.:  16.2
      thresh= 4.329E-06 alpha_mix =  0.300 |ddv_scf|^2 =  3.747E-10

     Pert. #  1: Fermi energy shift (Ry) =    -2.4856E-03     0.0000E+00

      iter #   4 total cpu time : 18190.3 secs   av.it.:  17.0
      thresh= 1.936E-06 alpha_mix =  0.300 |ddv_scf|^2 =  2.274E-11

     Pert. #  1: Fermi energy shift (Ry) =    -2.3619E-03     0.0000E+00

      iter #   5 total cpu time : 18334.3 secs   av.it.:  17.2
      thresh= 4.768E-07 alpha_mix =  0.300 |ddv_scf|^2 =  3.467E-12

     Pert. #  1: Fermi energy shift (Ry) =    -2.3427E-03     0.0000E+00

      iter #   6 total cpu time : 18482.5 secs   av.it.:  17.5
      thresh= 1.862E-07 alpha_mix =  0.300 |ddv_scf|^2 =  1.055E-13

     Pert. #  1: Fermi energy shift (Ry) =    -2.3176E-03     0.0000E+00

      iter #   7 total cpu time : 18618.8 secs   av.it.:  15.8
      thresh= 3.248E-08 alpha_mix =  0.300 |ddv_scf|^2 =  3.919E-14

     Pert. #  1: Fermi energy shift (Ry) =    -2.2929E-03     0.0000E+00

      iter #   8 total cpu time : 18765.2 secs   av.it.:  17.2
      thresh= 1.980E-08 alpha_mix =  0.300 |ddv_scf|^2 =  1.320E-15

     End of self-consistent calculation

     Convergence has been achieved 


     Representation #  19 mode #  19

     Self-consistent Calculation

     Pert. #  1: Fermi energy shift (Ry) =     2.0165E-02     0.0000E+00

      iter #   1 total cpu time : 18850.9 secs   av.it.:   6.6
      thresh= 1.000E-02 alpha_mix =  0.300 |ddv_scf|^2 =  3.243E-08

     Pert. #  1: Fermi energy shift (Ry) =    -6.6736E-03     0.0000E+00

      iter #   2 total cpu time : 18988.6 secs   av.it.:  16.0
      thresh= 1.801E-05 alpha_mix =  0.300 |ddv_scf|^2 =  1.874E-09
